
units		metal
atom_style	atomic

read_data ${STRUCTURE}.data
read_data BaTiO3-sc333.data
Reading data file ...
  orthogonal box = (0 0 0) to (11.898253 11.898253 12.912076)
  2 by 4 by 4 MPI processor grid
  reading atoms ...
  135 atoms
  read_data CPU = 0.030 seconds
replicate $L $L $L
replicate 2 $L $L
replicate 2 2 $L
replicate 2 2 2
Replication is creating a 2x2x2 = 8 times larger system...
  orthogonal box = (0 0 0) to (23.796507 23.796507 25.824152)
  2 by 4 by 4 MPI processor grid
  1080 atoms
  replicate CPU = 0.003 seconds

pair_style allegro
pair_coeff	* * ${MODEL}.pth Ba Ti O
pair_coeff	* * BaTiO3-E0.pth Ba Ti O
mass 1 137.3
mass 2 47.9
mass 3 15.9994

timestep 0.002
compute polarization all allegro polarization 3
compute allegro will evaluate the quantity polarization of length 3 (src/compute_allegro.cpp:53)
compute polarizability all allegro polarizability 9
compute allegro will evaluate the quantity polarizability of length 9 (src/compute_allegro.cpp:53)

thermo_style custom pe fmax fnorm spcpu cpuremain

variable efield equal 1e-2*36.36
fix born all addbornforce 0.0 0.0 ${efield}
fix born all addbornforce 0.0 0.0 0.3636

thermo 10
min_style fire
#minimize 0.0 1e-6 100 100
velocity all create ${TEMP} ${SEED} dist gaussian rot yes mom yes
velocity all create 300 ${SEED} dist gaussian rot yes mom yes
velocity all create 300 23603 dist gaussian rot yes mom yes
fix nvt all nvt temp ${TEMP} ${TEMP} $(100*dt)
fix nvt all nvt temp 300 ${TEMP} $(100*dt)
fix nvt all nvt temp 300 300 $(100*dt)
fix nvt all nvt temp 300 300 0.2000000000000000111
run 5000
Neighbor list info ...
  update: every = 1 steps, delay = 0 steps, check = yes
  max neighbors/atom: 2000, page size: 100000
  master list distance cutoff = 8
  ghost atom cutoff = 8
  binsize = 8, bins = 3 3 4
  1 neighbor lists, perpetual/occasional/extra = 1 0 0
  (1) pair allegro/kk, perpetual
      attributes: full, newton on, kokkos_device
      pair build: full/bin/kk/device
      stencil: full/bin/3d
      bin: kk/device
Per MPI rank memory allocation (min/avg/max) = 3.516 | 3.516 | 3.516 Mbytes
    PotEng          Fmax          Fnorm          S/CPU         CPULeft    
-807708.29      1.5955952      37.04308       0              0            
-807646.66      3.3601442      45.310831      2.2567601      2211.1357    
-807636.46      2.4678602      35.410148      25.863881      1199.6254    
-807607.67      3.3289112      37.82764       25.870582      862.18105    
-807604.78      4.3368193      50.225887      25.812         693.37439    
-807568.52      3.3735238      40.433094      25.800665      591.95226    
-807603.8       2.8483456      38.765747      25.89383       524.0935     
-807648.1       3.3544326      33.581244      25.910085      475.49559    
-807685.18      2.4630025      33.865205      25.852785      439.00323    
-807668.55      3.4389403      34.254988      25.86162       410.52713    
-807653.53      3.0182518      34.459664      25.894865      387.6446     
-807661.89      2.8124429      27.308318      25.890323      368.85532    
-807629.21      2.751703       30.162095      25.889541      353.13368    
-807586.47      3.186255       39.785608      25.89464       339.76849    
-807570.11      2.8440271      38.199733      25.922234      328.24317    
-807635.81      3.3196518      33.390788      25.884309      318.22141    
-807655.33      3.3031861      30.686315      25.898996      309.39744    
-807665.17      2.8229996      34.22654       25.878653      301.57478    
-807647.61      4.6624508      44.794017      25.90289       294.56869    
-807681.45      2.6424105      36.390448      25.855469      288.27738    
-807642.29      3.839089       39.357354      25.824546      282.58763    
-807616.42      2.9575115      38.725129      25.873995      277.386      
-807562.86      4.4013807      45.699534      25.898981      272.61401    
-807607.56      3.9849935      49.20758       25.855903      268.23676    
-807615.42      3.8429575      38.802679      25.871124      264.18751    
-807642.19      2.9351593      35.482478      25.920737      260.41723    
-807645.41      4.6723481      44.332778      25.89737       256.91365    
-807683.46      2.7368768      37.43258       25.880874      253.6453     
-807663.84      2.7579025      34.056504      25.829684      250.59571    
-807638.67      2.4768911      30.598829      25.891863      247.71464    
-807610.16      3.3205686      31.867081      25.89464       244.99924    
-807606.47      3.5502424      41.653826      25.853246      242.44346    
-807599.66      2.9924455      34.695458      25.805035      240.03383    
-807611.09      3.3877303      32.213057      25.912959      237.72389    
-807646.53      3.3919289      29.200338      25.890964      235.53163    
-807675.25      2.9490922      31.261089      25.888618      233.44304    
-807677.56      2.5490247      32.398627      25.801287      231.46587    
-807644.65      3.8948452      38.027056      25.879803      229.55991    
-807650.62      2.5834296      30.24692       25.900054      227.73026    
-807621.6       3.740673       33.274198      25.921173      225.97092    
-807601.1       3.584832       42.758628      25.859129      224.2909     
-807571.97      3.9949485      41.15063       25.892387      222.6684     
-807629.26      3.0446597      34.46418       25.925876      221.09933    
-807651.63      3.6804514      35.007515      25.88852       219.59123    
-807674.38      2.9501192      34.514454      25.885745      218.13453    
-807643.83      5.0957257      46.46263       25.86737       216.7282     
-807669.24      3.0986247      34.08682       25.87593       215.36493    
-807645.71      4.0146968      35.403639      25.856944      214.04597    
-807622.7       3.6358688      37.06375       25.897646      212.76013    
-807566.24      4.0896122      42.094191      25.901816      211.51043    
-807604.77      3.5960907      42.208143      25.913343      210.29373    
-807628.77      3.787772       33.376865      25.835846      209.11981    
-807655.11      2.6462459      31.90655       25.921675      207.96511    
-807647.11      4.5849526      38.961359      25.893403      206.84297    
-807674.33      2.8192817      33.771154      25.904904      205.74668    
-807668.52      2.6332634      31.472538      25.799827      204.68893    
-807641.63      2.6287771      29.619891      25.88384       203.64515    
-807601.86      2.6457787      33.325387      25.911505      202.62123    
-807598.88      3.1050509      37.119365      25.922163      201.61809    
-807609.67      3.8764472      37.965613      25.825463      200.64669    
-807621.71      3.6283381      31.983004      25.862292      199.69071    
-807641.98      3.0829076      31.875212      25.91824       198.74739    
-807665.21      3.081059       34.205289      25.850642      197.82918    
-807677.38      2.6345187      34.806135      25.75704       196.9376     
-807645.86      3.9588195      37.905272      25.832844      196.05397    
-807635.37      3.3113372      32.75187       25.890341      195.17988    
-807614.01      3.3431993      34.670603      25.886278      194.32097    
-807603.74      4.0734135      44.601585      25.857616      193.47893    
-807582.36      3.804188       39.940842      25.89102       192.64711    
-807621.11      2.6999125      35.161873      25.895408      191.8278     
-807649.12      4.0418043      36.610991      25.893586      191.02103    
-807675.8       2.5494756      35.686525      25.838848      190.23105    
-807649.48      4.0449056      41.899188      25.893356      189.44742    
-807655.49      3.0450832      34.768937      25.882521      188.67563    
-807642.92      3.2711584      33.765215      25.915473      187.91143    
-807623.62      3.5476475      37.20437       25.863441      187.16171    
-807573.95      3.8689118      39.691091      25.872161      186.42082    
-807595.62      3.2150087      38.684699      25.905331      185.68642    
-807632.62      3.0699607      31.82682       25.867067      184.96404    
-807660.53      2.4069378      31.118871      25.869076      184.25       
-807652.88      4.0960432      36.502903      25.906653      183.5412     
-807662.82      3.255329       34.52525       25.826036      182.84661    
-807665.97      2.9434676      32.441848      25.835226      182.15881    
-807643.41      3.2202523      31.227643      25.834788      181.47829    
-807599.37      2.9279804      36.232602      25.867842      180.80231    
-807588.26      3.1679995      38.389799      25.889494      180.13156    
-807609.99      4.0405331      39.37942       25.83848       179.4711     
-807631.77      3.4103302      31.951896      25.875687      178.81428    
-807641.95      3.327533       33.574974      25.902852      178.16171    
-807658.14      3.7088325      35.474475      25.920394      177.51392    
-807674.37      2.7707258      35.001627      25.805626      176.87977    
-807652.73      3.3361345      35.437712      25.880158      176.24602    
-807630.05      2.806858       32.880065      25.927406      175.61453    
-807606.36      3.3168777      35.365537      25.961956      174.98608    
-807605.49      4.1792555      43.787457      25.890645      174.36738    
-807597.05      4.2367115      37.419769      25.918578      173.75181    
-807622.51      2.7563166      33.691004      25.932196      173.14017    
-807646.1       4.0815485      35.425405      25.959673      172.53149    
-807674.03      2.8420375      35.050324      25.937162      171.92875    
-807657.73      3.4954314      37.012931      25.898949      171.33269    
-807648.49      3.5334294      33.702197      25.906259      170.74041    
-807635.65      3.3296162      32.436012      25.960967      170.14899    
-807622.98      3.2819027      36.787678      25.912532      169.56442    
-807588.1       3.7933946      37.808659      25.848668      168.98739    
-807594.77      3.3886884      37.41762       25.868773      168.41287    
-807630.07      3.1608571      32.167872      25.93773       167.83806    
-807663.16      3.2372965      31.775089      25.95483       167.26588    
-807660.12      3.3034497      34.350279      25.920652      166.69906    
-807654.64      5.0246874      35.821417      25.930412      166.13507    
-807658.14      3.155246       32.196525      25.84417       165.57896    
-807642.46      3.6095586      31.460673      25.898185      165.02307    
-807607.36      3.0555889      35.095732      25.93392       164.46837    
-807582         2.8295745      37.971215      25.924557      163.91718    
-807612.06      3.1620272      35.495561      25.925482      163.36886    
-807638.65      2.8132514      32.22392       25.883887      162.8255     
-807652.47      3.4258213      32.586472      25.921821      162.28297    
-807651.14      3.2327596      37.065043      25.956322      161.74146    
-807669.27      2.7259175      34.074028      25.882698      161.20619    
-807653.65      3.0031732      34.346586      25.850525      160.67501    
-807630.71      3.5384712      32.771596      25.911683      160.14334    
-807595.63      2.952007       36.749693      25.95468       159.61206    
-807603.17      3.6532579      40.443579      25.912396      159.08517    
-807610.67      3.6066293      34.83211       25.865553      158.56276    
-807631.22      3.0948921      31.816415      25.869016      158.04239    
-807643.15      4.527019       34.939469      25.891039      157.52319    
-807668.79      2.6755789      34.11484       25.915421      157.00502    
-807663.33      3.5253356      34.401403      25.882619      156.49041    
-807644.93      2.6074167      33.181754      25.882291      155.97783    
-807624.34      3.8821475      33.883057      25.950051      155.46428    
-807615.43      3.2079669      37.023073      25.925801      154.95377    
-807599.61      3.5471612      38.364208      25.923444      154.44527    
-807601.88      2.9578361      36.454636      25.936316      153.93811    
-807628.14      3.8753389      33.151887      25.95947       153.43183    
-807659.97      2.6714546      32.399502      25.954482      152.92757    
-807665.08      3.2801417      33.873602      25.911861      152.42683    
-807650.34      3.4756383      35.748471      25.900991      151.92822    
-807647.77      4.2270133      33.063896      25.902477      151.43121    
-807635.81      4.5858317      32.155701      25.903625      150.93577    
-807611.05      3.6555975      36.693406      25.799265      150.44601    
-807585.04      4.8864434      39.711875      25.936447      149.9524     
-807610.02      3.1744821      35.513643      25.964423      149.45926    
-807639.42      3.7096252      33.642547      25.903587      148.96996    
-807658.79      4.0401579      33.567856      25.91734       148.4816     
-807648.44      4.0371381      38.191271      25.937622      147.99391    
-807659.24      3.5319553      35.018241      25.915088      147.50848    
-807652.74      3.9607793      33.882931      25.895431      147.02513    
-807631.68      3.3734846      34.201258      25.936255      146.54165    
-807592.54      3.4451511      37.763828      25.957381      146.05874    
-807598.79      3.2796016      39.01219       25.95285       145.57731    
-807618.08      3.3969606      35.646728      25.919728      145.09833    
-807641.17      3.2748581      33.01954       25.940531      144.61987    
-807641.89      4.4669064      37.275268      25.924632      144.14319    
-807661.27      3.1394949      35.316459      25.943567      143.66706    
-807660.93      3.9259437      35.942061      25.856024      143.19508    
-807645.22      3.7812132      33.970534      25.897984      142.7228     
-807615.76      3.8380778      35.084514      25.933826      142.25043    
-807606.39      3.7835783      37.076694      25.919254      141.77966    
-807604.74      4.4593343      38.954926      25.910314      141.31027    
-807615.65      3.0810066      34.639301      25.943342      140.84086    
-807630.13      3.6141701      33.503334      25.940517      140.3726     
-807653.66      3.9461183      34.202777      25.867899      139.90768    
-807665.24      2.8565516      34.830324      25.908781      139.44244    
-807652.92      4.5795309      35.620378      25.877927      138.97915    
-807636.7       3.8175139      34.319968      25.957593      138.51434    
-807625.3       3.6205204      34.642449      25.951862      138.05068    
-807612.63      3.9179046      38.524289      25.930496      137.58861    
-807595.48      3.8165002      37.773423      25.924228      137.12765    
-807609.59      3.3191461      35.683998      25.927989      136.66748    
-807640.47      3.3024494      33.119857      25.914853      136.20859    
-807660.16      3.2856224      34.758329      25.896799      135.75108    
-807654.85      4.5337632      35.979207      25.858592      135.29553    
-807650.47      3.3406915      34.684726      25.928064      134.83878    
-807646         3.4586735      33.165954      25.925336      134.38294    
-807631.4       3.6950879      34.067102      25.921065      133.92802    
-807598.16      3.4848297      37.278005      25.912007      133.47416    
-807597.13      3.0739949      37.522762      25.974234      133.01935    
-807620.57      3.1745139      34.933907      25.929529      132.56656    
-807646.79      2.8441027      32.94175       25.914816      132.11493    
-807649.89      3.7156201      34.669933      25.932807      131.66355    
-807655.54      3.5491151      34.892276      25.952234      131.21239    
-807657.23      4.0053926      34.315608      25.948965      130.76205    
-807647.92      3.2856074      32.179149      25.900017      130.31371    
-807616.85      3.9130203      33.879465      25.958764      129.86452    
-807598.89      3.8578832      37.3946        25.938209      129.41657    
-807608.22      2.9204592      37.051736      25.892191      128.97047    
-807626.33      3.3540366      34.271386      25.881337      128.52529    
-807636.83      4.0628295      33.662881      25.924585      128.07966    
-807650.22      3.5202011      34.304856      25.932144      127.63448    
-807664.08      3.5849443      33.368036      25.903001      127.19065    
-807655.96      3.350382       33.388081      25.903222      126.74743    
-807634.26      3.4588177      33.428065      25.962403      126.30337    
-807618.18      4.0287516      33.983486      25.968552      125.85978    
-807609.83      3.8092964      36.953708      25.944301      125.41738    
-807608.32      3.5194086      36.917797      25.918663      124.97618    
-807617.3       3.4983508      34.711036      25.972528      124.53429    
-807638.31      3.5362567      34.153362      25.953212      124.09342    
-807659.68      2.6501825      34.238642      25.927106      123.65373    
-807656.33      3.3363436      35.777176      25.918212      123.21479    
-807645.47      3.84752        35.058881      25.928421      122.77615    
-807634.33      3.5500241      34.680908      25.940254      122.33778    
-807625.24      3.0112915      35.344353      25.940418      121.89993    
-807604.48      3.0530836      37.596402      25.940874      121.4626     
-807599.62      4.1513128      37.283654      25.953151      121.02551    
-807622.76      3.2784547      33.691216      25.919235      120.58966    
-807647.22      3.3936735      34.173927      25.922342      120.15424    
-807653.87      4.5512257      34.779684      25.89885       119.71981    
-807647.7       4.7180219      36.743079      25.930628      119.28517    
-807648.73      4.8335354      34.802417      25.922243      118.85118    
-807640.52      3.1440142      34.562531      25.914286      118.41783    
-807617.5       3.8976238      35.972352      25.930797      117.98458    
-807596.24      3.2377884      38.42414       25.932149      117.55176    
-807607.35      3.3134592      36.976861      25.956698      117.11889    
-807630.09      3.6941529      34.905911      25.958731      116.68642    
-807643.96      3.7121854      33.362721      25.922144      116.25513    
-807644.61      3.6327085      36.231629      25.965143      115.82342    
-807655.6       4.3507764      34.72811       25.954172      115.39235    
-807652.86      3.2921745      34.288262      25.922905      114.96232    
-807632.94      3.623318       34.630875      25.930999      114.53253    
-807608.6       3.9682182      36.493923      25.949365      114.1028     
-807605.82      3.3660887      37.478833      25.968958      113.67311    
-807613.94      3.3628291      36.918029      25.917236      113.24479    
-807626.14      2.9627741      34.401516      25.917752      112.81685    
-807637.69      3.0999535      34.370007      25.944112      112.3888     
-807654.56      3.5047967      34.889655      25.91703       111.96163    
-807658.21      3.0187636      34.683242      25.917504      111.53482    
-807644.71      3.2591715      34.341844      25.936664      111.10803    
-807626.72      2.8562297      34.212285      25.924383      110.68183    
-807617.35      3.2572158      34.990323      25.971883      110.25513    
-807609.51      3.3238649      37.400902      25.94132       109.82934    
-807608.6       2.9186586      36.68417       25.923041      109.40422    
-807625.74      3.5901484      34.3229        25.949755      108.97898    
-807646.9       3.1651896      33.816652      25.927806      108.55446    
-807657.35      3.0646968      34.988842      25.926791      108.1303     
-807650.36      4.9010931      35.31112       25.92481       107.7065     
-807640.88      3.1943357      34.660124      25.932938      107.28288    
-807634.89      3.6547916      33.556959      25.973602      106.85891    
-807616.76      3.2003102      36.258456      25.941739      106.4358     
-807602.93      3.0931797      37.222394      25.919972      106.01337    
-807609.75      3.8967377      35.95682       25.965995      105.59049    
-807635.61      2.7292249      32.745079      25.983685      105.16764    
-807649.11      3.9414178      33.636787      25.930285      104.74597    
-807650.88      3.8156564      34.526965      25.929285      104.32461    
-807649.24      4.5255729      34.349185      25.956091      103.90312    
-807649.11      2.7764701      32.408553      25.964715      103.48179    
-807632.16      3.4646843      33.433104      25.957193      103.06088    
-807608.63      3.3201379      35.02178       25.99167       102.63973    
-807603.31      2.894399       36.418547      25.923829      102.21991    
-807620.02      3.5513492      35.406044      25.899441      101.80074    
-807636.51      2.7655916      32.929444      25.910023      101.38168    
-807642.35      3.8845876      34.790356      25.930045      100.96258    
-807650.59      2.857196       34.643792      25.919198      100.54391    
-807654.64      4.2763349      34.198213      25.925608      100.12541    
-807644.66      3.167048       32.773667      25.932342      99.707074    
-807623.83      3.7787009      33.627906      25.951392      99.288717    
-807610.38      2.9943493      35.199992      25.965134      98.870422    
-807611.85      4.1570552      36.330353      25.914225      98.453114    
-807620.76      3.2160995      33.663073      25.933051      98.035785    
-807628.29      3.3762333      34.081105      25.99377       97.617851    
-807646.16      2.6431489      32.587144      26.001663      97.200065    
-807655.21      3.2653819      33.912319      25.949223      96.783258    
-807652.2       2.6754799      33.330351      25.965887      96.366465    
-807635.37      4.7191218      34.15836       25.983058      95.949682    
-807625.82      3.3300352      34.050781      25.999415      95.532922    
-807616.77      3.6378571      36.256686      25.955673      95.116991    
-807609.49      3.1455816      36.930212      25.930191      94.70163     
-807613.78      3.843351       34.964644      25.986788      94.285749    
-807635.08      3.7862909      33.65864       25.993935      93.870009    
-807651.32      2.9125398      33.127947      25.956426      93.454986    
-807652.2       3.3126181      33.847661      25.910975      93.04077     
-807644.69      3.6668208      33.77308       25.933342      92.626479    
-807640.2       3.2805698      32.297261      25.925754      92.212496    
-807629.74      3.2121488      32.50132       25.908031      91.798945    
-807612.91      2.9518251      34.611481      25.935202      91.385257    
-807604.19      3.0290683      36.559202      25.885394      90.972393    
-807623.07      3.2534347      34.02357       25.907051      90.559456    
-807639.31      3.2749926      33.228038      25.985458      90.145762    
-807646.58      3.7999032      34.477348      25.969259      89.732471    
-807647.58      3.6239234      34.964597      25.953767      89.31957     
-807647.39      2.9114352      34.672328      25.932699      88.907117    
-807642.86      2.7311957      32.834899      25.927763      88.494915    
-807620.51      3.2588492      34.997386      25.925022      88.082934    
-807607.91      3.1312849      35.706786      25.905682      87.671365    
-807611.81      3.0991413      35.595185      25.926979      87.259731    
-807627.02      2.9303674      34.268627      25.942829      86.8481      
-807636.45      2.9710131      33.453376      25.958727      86.436474    
-807644.39      3.3621058      34.093376      25.943243      86.025207    
-807651.58      3.0292488      33.557364      25.922398      85.614352    
-807648.64      4.174744       34.12243       25.882165      85.204117    
-807634.85      3.3911777      32.939302      25.866721      84.794217    
-807619.75      3.3848779      34.573282      25.93766       84.383707    
-807612.6       3.5153946      37.324416      25.969984      83.973021    
-807617.03      3.2463716      35.617576      25.976326      83.562444    
-807621.78      3.6966758      35.499949      25.962643      83.152187    
-807635.81      3.3115785      33.755869      26.019869      82.741503    
-807648.74      2.9466322      34.00528       25.960534      82.331614    
-807652.33      3.1039897      33.950392      25.913043      81.922382    
-807641.7       3.4152031      34.480893      25.930585      81.513128    
-807629.65      2.980608       34.460919      25.970408      81.103629    
-807624.86      3.7163603      34.105245      25.97103       80.694288    
-807613.43      3.4766222      35.721723      25.946505      80.285354    
-807612.41      2.9585115      35.281775      25.950884      79.876534    
-807623.32      3.5958726      35.15569       25.963909      79.467742    
-807644.35      3.2914016      33.192497      25.896578      79.059762    
-807648.24      4.3754141      35.329166      25.840471      78.652472    
-807648.35      3.6991992      34.31494       25.819591      78.245518    
-807641.17      3.2940211      34.255234      25.882857      77.838087    
-807635.13      3.6211537      33.97383       25.877062      77.430848    
-807620.65      3.7142341      35.649359      25.959282      77.022976    
-807607.51      3.9825345      37.310522      25.95539       76.615287    
-807613.81      2.8154665      35.244228      25.946487      76.207824    
-807631.63      3.9772951      34.388881      25.934798      75.80061     
-807644.26      2.9954249      33.510867      25.89323       75.393912    
-807644.73      4.4447447      34.972366      25.962944      74.98672     
-807648.38      3.433143       33.95434       25.929773      74.579963    
-807645.01      4.1827289      33.25271       25.929829      74.17334     
-807633.14      3.384486       32.785883      25.920798      73.766929    
-807613.99      2.893071       34.193703      25.922548      73.360633    
-807611.81      3.2311175      35.078582      25.94196       72.954301    
-807620.3       3.4327657      34.083898      25.906338      72.548403    
-807633.16      3.0981586      33.121364      25.924064      72.142479    
-807639.2       3.298648       33.534894      25.925416      71.736671    
-807649         3.1428925      33.853676      25.921253      71.331022    
-807651.49      3.2581528      33.888951      25.929468      70.925429    
-807641.22      3.5033102      33.720395      25.91317       70.520093    
-807626.22      4.5169381      34.1424        25.938919      70.114668    
-807616.89      3.1183845      34.640804      25.959908      69.709198    
-807614.49      3.5526632      36.040501      25.951773      69.303917    
-807619.64      3.0844753      33.830864      25.872339      68.899384    
-807629.26      4.1574459      33.702332      25.931863      68.494495    
-807644.44      3.3771551      33.467544      25.907684      68.08991     
-807652.01      3.0790324      33.757232      25.953588      67.685087    
-807646.89      3.4684704      34.436746      25.965228      67.280293    
-807635.53      3.691141       34.4458        25.917297      66.875978    
-807628.53      2.999258       33.209986      25.95539       66.47149     
-807618.18      4.2193335      35.454588      25.914788      66.067417    
-807612.06      3.8035448      36.05206       25.920868      65.663408    
-807618.65      4.2994643      35.007291      25.947963      65.259312    
-807635.36      3.4846184      33.116162      25.978089      64.855109    
-807646.92      4.4638228      34.031579      25.952441      64.451204    
-807647.64      3.6506198      34.528089      25.947672      64.047441    
-807643.55      3.3536349      34.723915      25.96567       63.643661    
-807638.59      3.8027633      34.571328      26.009385      63.239688    
-807627.68      3.4749098      34.930092      25.926599      62.836397    
-807611.83      3.1757409      36.446029      25.931172      62.433177    
-807609.52      3.3132408      36.789963      25.921675      62.030123    
-807621.64      3.1971825      35.027666      25.921257      61.627172    
-807637.32      3.7063337      33.361686      25.957607      61.22408     
-807641.76      3.7605154      34.070613      25.974319      60.820982    
-807646.64      3.8121879      34.37954       25.990944      60.41788     
-807645.31      3.0882005      34.889451      25.938501      60.01522     
-807639.16      3.3560887      33.329941      25.904924      59.612871    
-807622.41      3.1321595      34.073978      25.915136      59.210552    
-807610.97      3.2819486      36.443368      25.93184       58.808221    
-807614.22      3.5455592      35.87906       25.970974      58.405743    
-807623.87      2.7357627      34.689668      25.973415      58.003348    
-807635.25      3.0708497      33.015543      25.935753      57.60128     
-807642.11      2.7541711      34.138718      25.9622        57.199146    
-807647.56      4.3752231      34.783296      25.947647      56.797193    
-807647.41      4.1017644      33.833474      25.964351      56.395234    
-807632.39      3.0054892      34.442481      25.92703       55.993587    
-807621.82      3.0911086      34.032136      25.940694      55.591949    
-807616.07      3.3072736      35.028861      25.940643      55.190401    
-807616.68      3.0088282      35.06679       25.965674      54.7888      
-807623.51      3.0929171      34.190901      26.015547      54.387012    
-807635.03      2.8698078      33.657395      26.002394      53.985391    
-807647.01      3.3182423      34.368515      25.946768      53.584169    
-807648.44      3.3358131      34.569038      25.894779      53.183317    
-807640.38      2.9524461      34.257116      25.92312       52.782391    
-807632.26      3.0493862      34.063769      25.914942      52.381591    
-807624.77      3.309392       35.061587      25.941959      51.98073     
-807616.73      2.8571669      35.071899      26.029186      51.579498    
-807614.75      2.9721833      35.674063      25.996903      51.178524    
-807627.07      3.3361723      34.088579      25.988787      50.777679    
-807640.6       2.4948401      33.249508      25.958072      50.377075    
-807646.49      3.1005172      34.297809      25.969437      49.976497    
-807644.77      3.0776344      34.485299      25.91051       49.576293    
-807641.72      3.3977333      33.762637      25.912906      49.176153    
-807634.86      3.5948622      33.100945      25.929579      48.776008    
-807621.93      2.990007       34.385501      25.977616      48.375709    
-807612.77      5.0597155      35.570142      26.033195      47.975229    
-807618.25      2.7586562      34.899009      25.992599      47.575024    
-807632.35      3.3711691      34.343615      25.987457      47.174925    
-807639.4       3.2894342      33.718912      25.947224      46.775089    
-807644.12      3.3071445      34.604962      25.957352      46.375284    
-807645.75      3.3329371      34.071617      25.952073      45.975577    
-807642.93      3.1451286      33.425268      25.963193      45.575897    
-807630.09      3.5464131      34.299337      25.944821      45.176372    
-807616.98      3.1897642      35.095282      25.901637      44.777107    
-807613.55      3.4129882      35.787278      25.893482      44.377946    
-807621.44      3.3451926      34.959365      25.923354      43.978724    
-807629.94      3.7180129      34.350255      25.972819      43.579364    
-807638.64      3.9720867      34.077387      25.968104      43.180097    
-807646.69      4.4701012      34.053808      25.939082      42.781021    
-807647.38      5.1798404      33.929987      25.915087      42.382111    
-807638.88      3.8783729      33.979494      25.955912      41.983104    
-807627.17      4.5909279      34.250497      25.968118      41.584118    
-807618.21      3.7390104      34.852594      25.98036       41.185155    
-807615.09      3.7651367      36.289359      25.936399      40.786432    
-807620.15      3.8241777      35.332497      25.954524      40.387706    
-807629.81      3.4547276      33.885608      25.969117      39.988993    
-807641.17      4.1526801      34.877023      25.960961      39.590378    
-807646.77      3.7102711      34.602137      25.978003      39.191768    
-807645.37      3.988013       33.899969      25.942311      38.793355    
-807635.17      3.0776055      34.211506      25.979497      38.394873    
-807627.03      3.1842252      34.31899       25.958796      37.996531    
-807617.49      3.6415068      35.979642      25.937898      37.598327    
-807614.77      3.2857494      35.752975      25.948846      37.200148    
-807618.63      3.5686349      35.284289      25.956349      36.802006    
-807634.57      2.8790027      33.785639      25.938782      36.403986    
-807643.08      3.7640606      33.864244      25.910299      36.006121    
-807644.24      3.238587       34.592776      25.939581      35.608219    
-807642.33      4.0269854      34.218377      25.976467      35.210259    
-807637.25      3.4311073      33.976799      26.02279       34.812216    
-807626.24      3.5428232      34.344447      25.936625      34.414508    
-807615.71      3.4677354      35.136503      25.949674      34.016818    
-807614.7       3.6121282      34.879178      25.961813      33.619151    
-807625.93      3.3565678      34.306038      25.968886      33.221523    
-807635.12      3.3138363      33.751972      25.98598       32.823905    
-807642.12      3.5618793      34.468311      25.943148      32.426472    
-807644.39      4.4937339      34.896389      25.944398      32.029093    
-807644.57      3.1884975      33.984812      25.996252      31.631625    
-807635.19      3.1426365      33.802421      25.982929      31.234254    
-807624.73      3.3503915      34.100368      26.023008      30.836833    
-807617.3       2.6928167      33.952106      26.008373      30.439513    
-807619.6       3.5429079      34.750215      25.981661      30.042325    
-807627.39      3.0437765      33.658772      25.934346      29.645319    
-807637.63      2.6506491      32.477768      25.951085      29.248323    
-807643.75      3.1958899      33.907751      25.955154      28.851371    
-807646.99      3.1837233      33.930764      25.926748      28.454545    
-807643.35      2.9834302      33.42213       25.928476      28.057767    
-807633.97      3.1564716      32.90736       25.947215      27.660994    
-807623.68      2.7296826      34.199332      25.964186      27.264235    
-807617.76      3.1002805      35.064199      25.921796      26.867628    
-807620.98      3.0836541      33.917893      25.925743      26.471062    
-807625.26      3.6504262      33.675681      25.928762      26.074539    
-807639.2       2.5169451      32.018329      25.917676      25.678091    
-807643.52      3.8497155      34.217508      25.874433      25.281786    
-807648.69      2.7612155      32.496119      25.916067      24.885437    
-807639.23      3.8947965      32.967273      25.926974      24.489112    
-807632.34      3.6496172      32.773995      25.948856      24.092791    
-807623.81      3.3317402      33.725318      25.971439      23.696473    
-807618.65      3.2460705      34.69917       25.995577      23.300159    
-807618.41      2.7046472      34.299241      25.983773      22.903921    
-807627.16      2.943152       33.749203      26.008647      22.507687    
-807639.24      3.5824642      34.045413      25.985914      22.111548    
-807645.12      2.7720696      33.087636      25.923805      21.715574    
-807643.54      2.8371838      33.301026      25.925917      21.319641    
-807638.73      3.018735       33.891208      25.941023      20.923728    
-807632.54      3.3258617      33.497664      25.971981      20.527809    
-807620.85      3.4043444      34.315526      25.954585      20.131967    
-807615.41      3.3944297      35.034182      25.960858      19.736161    
-807618.91      3.5510587      35.138859      25.920689      19.340468    
-807631.29      3.4836086      34.253286      25.920018      18.944819    
-807638.77      2.9835692      34.061714      25.888758      18.549262    
-807642.3       3.5905752      33.706005      25.892686      18.15374     
-807642.5       3.3291603      34.381525      25.94382       17.758184    
-807639.74      3.2699769      33.432708      25.919187      17.362707    
-807629.29      3.3705801      33.690136      25.977739      16.967191    
-807616.79      3.6484788      35.066139      25.938927      16.571774    
-807617.26      3.5557991      34.92563       25.939731      16.176399    
-807623.25      3.546847       34.336843      25.901286      15.781117    
-807630.57      2.9108384      33.669846      25.92657       15.385842    
-807639.42      2.8394551      32.949349      25.961578      14.990567    
-807644.39      3.4369687      32.79484       25.976094      14.595317    
-807644.15      3.1519011      32.928117      25.917522      14.20018     
-807638.36      3.5184977      32.481222      25.930744      13.805067    
-807625.57      2.8906435      33.985212      25.999329      13.409922    
-807619.74      3.6561754      34.640011      25.979964      13.014841    
-807618.32      3.7720203      34.785927      25.978192      12.619806    
-807623.29      4.2298769      33.747358      26.000883      12.224791    
-807629.96      3.8499218      33.778481      25.953762      11.829866    
-807638.77      2.8345863      34.177906      25.964549      11.434971    
-807646.11      2.8060537      33.566712      25.944596      11.040135    
-807642.93      3.0305334      33.29917       25.957752      10.645328    
-807634.43      3.0676868      33.800913      25.957954      10.250561    
-807627.38      3.0694899      33.821506      25.924579      9.8558606    
-807622.08      2.8279689      34.192067      25.925697      9.4611968    
-807617.54      3.503779       34.530146      25.91976       9.0665747    
-807623.32      2.9945858      34.042748      25.904538      8.6719999    
-807632.89      4.0919569      34.540782      25.870412      8.2774832    
-807643.67      3.174338       33.356649      25.851943      7.8830112    
-807640.61      3.5800851      34.511385      25.841296      7.4885773    
-807640.82      3.8172726      34.57705       25.937889      7.0941205    
-807635.86      3.391568       34.651964      25.944111      6.6996974    
-807627.21      4.1201746      34.831735      25.94492       6.305311     
-807619.04      3.1709789      35.049065      26.019376      5.9109274    
-807619.19      2.7628059      34.365315      26.005492      5.5165911    
-807628.87      2.9521062      33.230866      25.989612      5.1223014    
-807635.44      2.876454       33.62884       25.952045      4.7280643    
-807640.89      2.6644831      33.26789       25.982397      4.3338536    
-807642.1       3.457862       33.641023      25.971236      3.9396844    
-807642.5       2.6493694      32.858527      25.960058      3.5455553    
-807636.06      3.1853886      32.989654      26.015121      3.1514493    
-807626.24      2.851216       32.639928      25.988678      2.7573882    
-807620.8       3.265271       33.203636      25.942917      2.363373     
-807623.93      3.0186462      33.673044      25.92672       1.9693947    
-807630.02      3.7931242      32.655623      25.908733      1.575452     
-807636.69      3.0132258      33.316297      25.875934      1.1815443    
-807640.45      2.9659682      33.869742      25.867131      0.78766707   
-807645.41      2.8376418      33.588186      25.915913      0.39381756   
-807640.97      2.7606156      32.923751      25.912493      0            
Loop time of 196.901 on 32 procs for 5000 steps with 1080 atoms

Performance: 4.388 ns/day, 5.469 hours/ns, 25.393 timesteps/s, 27.425 katom-step/s
66.9% CPU use with 32 MPI tasks x 1 OpenMP threads

MPI task timing breakdown:
Section |  min time  |  avg time  |  max time  |%varavg| %total
---------------------------------------------------------------
Pair    | 101.1      | 144.81     | 192.87     | 313.8 | 73.54
Neigh   | 0          | 0          | 0          |   0.0 |  0.00
Comm    | 1.7652     | 49.834     | 93.537     | 534.9 | 25.31
Output  | 0.026109   | 0.026891   | 0.028709   |   0.3 |  0.01
Modify  | 1.91       | 1.9211     | 1.9315     |   0.4 |  0.98
Other   |            | 0.3137     |            |       |  0.16

Nlocal:          33.75 ave          48 max          21 min
Histogram: 8 8 0 0 0 0 0 8 0 8
Nghost:        1106.25 ave        1119 max        1092 min
Histogram: 8 0 8 0 0 0 0 0 8 8
Neighs:              0 ave           0 max           0 min
Histogram: 32 0 0 0 0 0 0 0 0 0
FullNghs:       5494.5 ave        7896 max        3378 min
Histogram: 8 8 0 0 0 0 0 8 0 8

Total # of neighbors = 175824
Ave neighs/atom = 162.8
Neighbor list builds = 0
Dangerous builds = 0

reset_timestep 0


variable interval equal 1000
thermo 10

variable nintervals equal $(v_PERIOD/v_interval)
variable nintervals equal 100
variable efield equal 1e-2*36.36*cos((step/${PERIOD})*2*3.14)
variable efield equal 1e-2*36.36*cos((step/100000)*2*3.14)
fix born all addbornforce 0.0 0.0 v_efield

variable Px equal f_born[1]+c_polarization[1]
variable Py equal f_born[2]+c_polarization[2]
variable Pz equal (f_born[3]+c_polarization[3])/vol
variable pe equal pe

fix aveP all ave/time 1 $(v_interval/2) ${interval} v_efield v_Pz v_pe f_born file Pz.${MODEL}.${STRUCTURE}.${TEMP}.$L.${ITER}
fix aveP all ave/time 1 500 ${interval} v_efield v_Pz v_pe f_born file Pz.${MODEL}.${STRUCTURE}.${TEMP}.$L.${ITER}
fix aveP all ave/time 1 500 1000 v_efield v_Pz v_pe f_born file Pz.${MODEL}.${STRUCTURE}.${TEMP}.$L.${ITER}
fix aveP all ave/time 1 500 1000 v_efield v_Pz v_pe f_born file Pz.BaTiO3-E0.${STRUCTURE}.${TEMP}.$L.${ITER}
fix aveP all ave/time 1 500 1000 v_efield v_Pz v_pe f_born file Pz.BaTiO3-E0.BaTiO3-sc333.${TEMP}.$L.${ITER}
fix aveP all ave/time 1 500 1000 v_efield v_Pz v_pe f_born file Pz.BaTiO3-E0.BaTiO3-sc333.300.$L.${ITER}
fix aveP all ave/time 1 500 1000 v_efield v_Pz v_pe f_born file Pz.BaTiO3-E0.BaTiO3-sc333.300.2.${ITER}
fix aveP all ave/time 1 500 1000 v_efield v_Pz v_pe f_born file Pz.BaTiO3-E0.BaTiO3-sc333.300.2.7

thermo_style custom step time temp press pe f_born v_efield v_Pz spcpu cpuremain

# dump 4a all custom 1000 dump.hyst.${MODEL}.${STRUCTURE}.${TEMP}.$L.${ITER}.bin id type xu yu zu fx fy fz
# dump_modify 4a sort id

fix nvt all nvt temp ${TEMP} ${TEMP} $(100*dt)
fix nvt all nvt temp 300 ${TEMP} $(100*dt)
fix nvt all nvt temp 300 300 $(100*dt)
fix nvt all nvt temp 300 300 0.2000000000000000111

run $(v_PERIOD)
run 100000
WARNING: non-constant efield is experimental, strongly distrust scalar/vector output (src/fix_addbornforce.cpp:193)
Per MPI rank memory allocation (min/avg/max) = 3.516 | 3.516 | 3.516 Mbytes
   Step          Time           Temp          Press          PotEng         f_born        v_efield         v_Pz          S/CPU         CPULeft    
         0   0              287.32643      127702.39     -807640.97     -296.1844       0.3636         0.055703928    0              0            
        10   0.02           284.7721       131973.02     -807633.07     -303.96417      0.36359993     0.057167094    26.890441      3718.4455    
        20   0.04           293.23854      140837.46     -807625.05     -312.96845      0.36359971     0.05886058     26.895265      3717.728     
        30   0.06           285.51181      140855.23     -807623.9      -313.01914      0.36359935     0.058870172    26.902754      3716.8951    
        40   0.08           284.00054      141660.55     -807623.25     -313.29241      0.36359885     0.058921648    26.900333      3716.3781    
        50   0.1            298.16988      134158.88     -807630.73     -307.7489       0.36359821     0.057879169    26.900333      3715.9177    
        60   0.12           294.22437      129976.15     -807637.14     -300.4163       0.36359742     0.05650023     26.897154      3715.5607    
        70   0.14           281.65159      123368.3      -807643.92     -291.66449      0.36359649     0.054854391    26.869201      3715.7518    
        80   0.16           276.64941      125223.97     -807642.62     -291.98852      0.36359541     0.054915494    26.851625      3716.1061    
        90   0.18           291.83453      127475.2      -807638.99     -297.54387      0.36359419     0.055960501    26.853584      3716.2684    
       100   0.2            303.47021      134172.14     -807631.39     -306.41598      0.36359283     0.057629336    26.833464      3716.6036    
       110   0.22           301.73607      138928.81     -807626.58     -310.69962      0.36359132     0.058435226    26.79387       3717.3102    
       120   0.24           294.17438      142537.54     -807621.15     -314.80843      0.36358968     0.059208265    26.753728      3718.302     
       130   0.26           294.04229      141111.44     -807621.5      -314.21961      0.36358788     0.059097812    26.784036      3718.7593    
       140   0.28           307.23714      134437.66     -807630.58     -306.7979       0.36358595     0.057702258    26.813133      3718.8089    
       150   0.3            295.36444      129255.43     -807637.37     -298.00498      0.36358387     0.056048815    26.881979      3718.1663    
       160   0.32           289.71221      125114.83     -807642.53     -291.93777      0.36358165     0.054908029    26.855609      3717.7856    
       170   0.34           290.36849      126787.37     -807640.25     -294.15357      0.36357928     0.05532514     26.890305      3717.1239    
       180   0.36           302.76237      127159.73     -807639.25     -296.84425      0.36357677     0.055831595    26.884634      3716.5376    
       190   0.38           312.50191      135699.82     -807631.57     -305.67025      0.36357412     0.057492042    26.871365      3716.0702    
       200   0.4            296.55399      139196.48     -807624.55     -310.52949      0.36357132     0.058406442    26.884503      3715.5218    
       210   0.42           293.71085      144856.03     -807617.62     -316.86761      0.36356838     0.059599039    26.880041      3715.0197    
       220   0.44           300.19549      138916.44     -807624.07     -311.34893      0.3635653      0.058561537    26.854793      3714.6877    
       230   0.46           298.34562      136695.79     -807629.75     -305.19727      0.36356207     0.057404984    26.88834       3714.151     
       240   0.48           297.55957      127102.08     -807638.73     -296.10315      0.3635587      0.055694973    26.845493      3713.8745    
       250   0.5            291.3721       126238.82     -807638.94     -294.78143      0.36355519     0.055446904    26.866917      3713.4718    
       260   0.52           300.8463       124184.92     -807642.79     -292.26704      0.36355153     0.054974511    26.788872      3713.4876    
       270   0.54           305.36582      131367.21     -807636.82     -298.7226       0.36354773     0.056189369    26.818351      3713.323     
       280   0.56           308.28468      134698.59     -807629.92     -306.14249      0.36354379     0.057585666    26.819707      3713.1367    
       290   0.58           299.08477      142986.18     -807620.37     -314.23207      0.3635397      0.059107988    26.825018      3712.9122    
       300   0.6            300.0609       141447.84     -807621.63     -313.1069       0.36353547     0.058897025    26.823661      3712.6841    
       310   0.62           306.23797      140454.3      -807625.05     -310.35679      0.3635311      0.058380417    26.825591      3712.4382    
       320   0.64           299.38928      132952.03     -807630.99     -303.4783       0.36352658     0.057087232    26.868778      3711.9974    
       330   0.66           312.43047      128439.35     -807637.99     -298.14081      0.36352192     0.056083917    26.875026      3711.5348    
       340   0.68           292.57379      124800.48     -807641.32     -291.96181      0.36351712     0.054922298    26.888739      3711.0219    
       350   0.7            303.85645      126872.75     -807641.54     -293.22131      0.36351217     0.055159979    26.822536      3710.7784    
       360   0.72           303.45402      130276.2      -807634.51     -300.27255      0.36350708     0.056487229    26.832815      3710.4883    
       370   0.74           313.19366      137775.3      -807626.98     -309.04605      0.36350185     0.058138536    26.835395      3710.1838    
       380   0.76           297.89795      141787.36     -807621.53     -312.38658      0.36349647     0.058767834    26.829004      3709.8992    
       390   0.78           296.18127      142084.67     -807620.6      -312.95418      0.36349095     0.058875509    26.794231      3709.7335    
       400   0.8            311.84438      138067.25     -807625.85     -309.857        0.36348529     0.05829375     26.81603       3709.482     
       410   0.82           309.20198      133166.36     -807631.57     -303.71199      0.36347948     0.057138595    26.802763      3709.2694    
       420   0.84           296.16679      128193.86     -807637.8      -295.60617      0.36347353     0.055614523    26.817135      3709.0015    
       430   0.86           290.92632      125828.06     -807641.14     -291.51653      0.36346744     0.05484603     26.833927      3708.6751    
       440   0.88           290.58486      128111.09     -807637.76     -294.86737      0.3634612      0.05547741     26.820406      3708.3889    
       450   0.9            304.47892      132194.62     -807632.62     -302.02523      0.36345482     0.056825113    26.820622      3708.0982    
       460   0.92           310.52456      137534.56     -807627.06     -308.42732      0.3634483      0.058030688    26.847557      3707.723     
       470   0.94           307.12048      139825.6      -807623.59     -311.44335      0.36344163     0.05859923     26.882015      3707.2467    
       480   0.96           297.84949      142078.98     -807620.54     -313.23247      0.36343482     0.058936965    26.871259      3706.8059    
       490   0.98           307.55724      137226.52     -807626.15     -309.11126      0.36342786     0.058162641    26.882938      3706.3348    
       500   1              311.78727      132431.99     -807634.23     -301.58424      0.36342077     0.05674746     26.904857      3705.8074    
       510   1.02           290.97825      127360.03     -807638.99     -9407.7733      0.36341353     0.055320143    26.814323      3705.5309    
       520   1.04           296.64286      126508.15     -807640.66     -9383.8135      0.36340614     0.055180374    26.794081      3705.3047    
       530   1.06           286.52339      128697.26     -807635.68     -9503.9832      0.36339862     0.055888175    26.76475       3705.1497    
       540   1.08           313.10443      132710.56     -807633.99     -9681.0249      0.36339095     0.056930471    26.737122      3705.0576    
       550   1.1            300.63619      137225.14     -807627.24     -9847.16        0.36338313     0.057908694    26.69476       3705.0627    
       560   1.12           304.18416      141673.84     -807622.19     -10031.144      0.36337518     0.058991952    26.677834      3705.0963    
       570   1.14           298.5628       140819.1      -807621.69     -10030.29       0.36336707     0.058988241    26.731821      3704.9836    
       580   1.16           300.27115      136842.2      -807628.3      -9832.8435      0.36335883     0.057828369    26.771501      3704.7668    
       590   1.18           298.67516      130820.13     -807636.34     -9574.4914      0.36335044     0.056310263    26.777059      3704.5316    
       600   1.2            288.92421      127828.98     -807638.89     -9454.6308      0.36334191     0.055606635    26.758418      3704.335     
       610   1.22           284.89173      126574.6      -807639.93     -9410.3939      0.36333324     0.055347781    26.731132      3704.1948    
       620   1.24           295.26567      129312.54     -807639.14     -9487.2098      0.36332442     0.055800932    26.7248        3704.0611    
       630   1.26           296.38219      132524.78     -807633.63     -9676.7219      0.36331546     0.056916989    26.790767      3703.7745    
       640   1.28           298.53754      138824.44     -807625.75     -9942.8047      0.36330636     0.058483512    26.834369      3703.391     
       650   1.3            284.67876      141485.82     -807621.15     -10033.742      0.36329711     0.059019906    26.840154      3702.9956    
       660   1.32           293.68381      139837.92     -807624.45     -9969.7106      0.36328772     0.058644781    26.823767      3702.6352    
       670   1.34           299.62196      134831.94     -807631.05     -9787.4685      0.36327819     0.05757429     26.843541      3702.2336    
       680   1.36           294.0277       130484.36     -807635.68     -9616.0489      0.36326851     0.05656743     26.760629      3702.0015    
       690   1.38           286.48682      126034.68     -807639.82     -9451.5938      0.36325869     0.055601508    26.751949      3701.7828    
       700   1.4            281.109        125588.08     -807641.64     -9367.7824      0.36324873     0.055109977    26.732949      3701.5972    
       710   1.42           295.62605      128295.04     -807639.44     -9505.3761      0.36323863     0.055920986    26.732549      3701.4072    
       720   1.44           296.05641      133713.05     -807631.75     -9753.318       0.36322838     0.05738127     26.722795      3701.2309    
       730   1.46           299.023        139014.62     -807626.11     -9945.7284      0.36321798     0.058514944    26.747911      3701.0014    
       740   1.48           296.36219      140843.76     -807624.72     -9976.4077      0.36320745     0.058697146    26.797712      3700.6747    
       750   1.5            289.00493      139692.92     -807624.43     -9946.7122      0.36319677     0.05852415     26.815292      3700.3145    
       760   1.52           300.16267      134755.1      -807630.21     -9807.6212      0.36318595     0.05770749     26.814087      3699.9561    
       770   1.54           291.25482      129819.34     -807635.57     -9589.2358      0.36317498     0.056424227    26.760824      3699.693     
       780   1.56           283.38874      126709.95     -807639.96     -9406.4148      0.36316387     0.055350179    26.691934      3699.5498    
       790   1.58           283.4426       126910.57     -807640.34     -9387.1525      0.36315262     0.055238545    26.751774      3699.2954    
       800   1.6            289.40827      130786.14     -807634.73     -9585.9497      0.36314122     0.056410134    26.773469      3699.0005    
       810   1.62           302.74351      134094.75     -807630.77     -9762.4499      0.36312968     0.057450605    26.789424      3698.6764    
       820   1.64           291.86511      140330.53     -807624.12     -9916.1216      0.363118       0.058356818    26.839998      3698.2661    
       830   1.66           300.36398      140890.74     -807622.67     -9989.3683      0.36310618     0.058789793    26.820883      3697.8883    
       840   1.68           304.97229      139359.46     -807623.54     -9971.9174      0.36309421     0.058689024    26.81809       3697.5153    
       850   1.7            303.23837      134321.89     -807630.17     -9743.2272      0.3630821      0.057344997    26.817492      3697.1433    
       860   1.72           296.74419      130334.47     -807635.85     -9521.488       0.36306984     0.056041814    26.781376      3696.8292    
       870   1.74           297.95339      126076.71     -807639.97     -9387.982       0.36305745     0.055257908    26.7429        3696.5749    
       880   1.76           305.55136      127249.71     -807639.45     -9434.2786      0.3630449      0.055532329    26.758673      3696.2931    
       890   1.78           304.67505      129558.29     -807635.7      -9548.019       0.36303222     0.056203795    26.795049      3695.9528    
       900   1.8            309.47591      136508.49     -807629.78     -9753.6193      0.36301939     0.057416077    26.767813      3695.6535    
       910   1.82           306.94708      139988.4      -807623.8      -9933.6092      0.36300642     0.058477703    26.802311      3695.3003    
       920   1.84           310.73281      142423.53     -807620.62     -10049.744      0.36299331     0.059163507    26.824003      3694.9141    
       930   1.86           301.37062      139746.84     -807624.1      -9896.5848      0.36298005     0.058263978    26.794332      3694.5721    
       940   1.88           309.91218      134838.34     -807630.84     -9716.7337      0.36296665     0.057207256    26.759923      3694.2802    
       950   1.9            299.77078      129051.56     -807636.23     -9498.0552      0.36295311     0.055921873    26.775211      3693.9641    
       960   1.92           295.75189      127893.71     -807637.73     -9430.4355      0.36293942     0.055525841    26.809654      3693.5974    
       970   1.94           302.80422      127018.92     -807639.81     -9397.1585      0.36292559     0.055332017    26.811501      3693.228     
       980   1.96           306.78398      131517.08     -807635.47     -9553.3721      0.36291162     0.056253994    26.780424      3692.9022    
       990   1.98           314.04774      135870.46     -807628.87     -9801.9735      0.3628975      0.057720101    26.76446       3692.5978    
      1000   2              296.89052      141669.78     -807620.94     -9980.5297      0.36288325     0.05877386     26.691983      3692.3923    
      1010   2.02           293.98261      141975.59     -807620.76     -311.68342      0.36286884     0.058736971    26.836507      3691.9858    
      1020   2.04           309.44077      137628.04     -807626.81     -307.88886      0.3628543      0.058024208    26.819034      3691.6036    
      1030   2.06           306.41636      133120.74     -807631.57     -302.74223      0.36283961     0.057056592    26.873992      3691.1482    
      1040   2.08           299.40115      129371        -807636.38     -297.00282      0.36282478     0.055977197    26.898059      3690.6627    
      1050   2.1            299.688        126738.22     -807640.57     -292.92507      0.3628098      0.055210928    26.90009       3690.1768    
      1060   2.12           304.36211      127471.85     -807639.96     -294.31369      0.36279469     0.055474969    26.894709      3689.7       
      1070   2.14           305.75804      132759.26     -807633.58     -301.05882      0.36277943     0.05674874     26.882459      3689.2408    
      1080   2.16           303.64654      137301        -807626.6      -307.9233       0.36276402     0.058045139    26.900333      3688.7606    
      1090   2.18           295.75003      141092.6      -807622.16     -311.36538      0.36274848     0.058696505    26.883468      3688.3035    
      1100   2.2            297.48308      140065.96     -807624.26     -309.63971      0.36273279     0.058373718    26.839525      3687.9027    
      1110   2.22           298.68976      138398.93     -807626.07     -308.11194      0.36271695     0.058088236    26.814082      3687.5339    
      1120   2.24           313.63216      130827.19     -807634.39     -301.96296      0.36270098     0.056931478    26.825058      3687.1516    
      1130   2.26           300.15786      128350.07     -807638.71     -295.75222      0.36268486     0.055762996    26.858309      3686.7291    
      1140   2.28           285.85831      126407.22     -807640.83     -291.81409      0.3626686      0.055022943    26.82341       3686.3494    
      1150   2.3            292.08627      129203.39     -807636.94     -296.69089      0.36265219     0.055945018    26.856133      3685.9309    
      1160   2.32           304.32217      132450.98     -807632.9      -302.61015      0.36263564     0.057063777    26.894224      3685.4682    
      1170   2.34           298.85185      138107.18     -807627.67     -307.13543      0.36261895     0.057919785    26.859398      3685.0478    
      1180   2.36           297.25502      139946.03     -807625.31     -309.40543      0.36260212     0.058350572    26.855151      3684.6331    
      1190   2.38           303.90411      139600.69     -807624.83     -310.92196      0.36258514     0.058639317    26.829839      3684.2483    
      1200   2.4            289.39037      135857.46     -807626.89     -306.95272      0.36256802     0.05789346     26.835642      3683.857     
      1210   2.42           303.64443      131178.67     -807636.92     -298.98647      0.36255076     0.056393655    26.858551      3683.4402    
      1220   2.44           288.09326      127618.02     -807640.11     -293.6783       0.36253335     0.055395107    26.825717      3683.0609    
      1230   2.46           277.68972      127209.13     -807638.25     -294.17575      0.3625158      0.055491626    26.831111      3682.6758    
      1240   2.48           296.50373      129609.74     -807637.7      -297.48798      0.36249811     0.056119165    26.881843      3682.2348    
      1250   2.5            294.93393      133040.71     -807632.16     -302.87086      0.36248028     0.05713742     26.835843      3681.8453    
      1260   2.52           308.25468      137588.08     -807628.96     -307.96309      0.3624623      0.058100966    26.819979      3681.4733    
      1270   2.54           297.34277      140673.67     -807623.96     -311.59902      0.36244418     0.058789866    26.812144      3681.1098    
      1280   2.56           291.46103      140533.03     -807623.22     -311.54776      0.36242592     0.058783157    26.841809      3680.7144    
      1290   2.58           297.45333      135006.7      -807630.58     -305.10074      0.36240751     0.05756965     26.879835      3680.279     
      1300   2.6            290.27917      131097.03     -807636.57     -298.13731      0.36238896     0.056258596    26.927267      3679.7947    
      1310   2.62           282.7009       126614.56     -807639.39     -294.3647       0.36237027     0.055549568    26.946326      3679.293     
      1320   2.64           280.69789      127126.78     -807638.4      -295.08749      0.36235143     0.05568886     26.942594      3678.7961    
      1330   2.66           293.10228      128443.77     -807638.68     -296.62443      0.36233245     0.055981844    26.963234      3678.2805    
      1340   2.68           298.68698      133992.09     -807633.44     -302.67901      0.36231333     0.057127538    26.921844      3677.809     
      1350   2.7            295.80141      138607.01     -807627.1      -308.71307      0.36229407     0.058269502    26.89434       3677.3667    
      1360   2.72           292.74778      140524        -807623.75     -311.61072      0.36227466     0.058819583    26.910991      3676.9088    
      1370   2.74           295.02638      137320.12     -807627.28     -308.39146      0.36225511     0.058215058    26.954032      3676.4095    
      1380   2.76           293.42051      134138.92     -807632.73     -302.66752      0.36223542     0.057137657    26.904786      3675.9605    
      1390   2.78           297.0681       129882.31     -807637.34     -298.47935      0.36221558     0.056350098    26.884281      3675.5328    
      1400   2.8            280.16865      126960.31     -807638.14     -295.21092      0.3621956      0.055736123    26.842046      3675.1471    
      1410   2.82           286.44217      126691.24     -807639.95     -294.11594      0.36217548     0.055532475    26.798048      3674.8043    
      1420   2.84           292.60957      130396        -807636.46     -298.35992      0.36215522     0.056336939    26.76419       3674.4939    
      1430   2.86           299.81617      135173.85     -807630.66     -305.04681      0.36213481     0.057602817    26.756963      3674.1895    
      1440   2.88           296.17517      139808.09     -807624.92     -310.03319      0.36211426     0.058547731    26.884735      3673.7626    
      1450   2.9            289.59848      139917.27     -807624.8      -308.95194      0.36209357     0.05834688     26.909549      3673.3132    
      1460   2.92           303.95161      137128.97     -807628.79     -306.69832      0.36207273     0.057924607    26.894749      3672.8786    
      1470   2.94           297.34309      133626.45     -807631.24     -303.05272      0.36205176     0.057239396    26.899155      3672.4408    
      1480   2.96           297.90073      129826.06     -807636.2      -297.86271      0.36203064     0.05626241     26.895118      3672.0076    
      1490   2.98           290.95199      127764.07     -807639.1      -293.64396      0.36200937     0.055468801    26.908113      3671.5634    
      1500   3              289.8556       128728.57     -807637.96     -294.3586       0.36198796     0.055607083    26.84719       3671.1754    
      1510   3.02           301.41144      131515.33     -807633.66     -9603.7041      0.36196642     0.056698038    26.756863      3670.8698    
      1520   3.04           310.04145      136166.93     -807628.73     -9792.2282      0.36194472     0.057814505    26.786296      3670.5366    
      1530   3.06           298.50253      139127.97     -807624.6      -9866.1916      0.36192289     0.058254708    26.776243      3670.2119    
      1540   3.08           306.89357      138953.73     -807625.21     -9876.0626      0.36190091     0.058316533    26.811792      3669.8549    
      1550   3.1            307.82002      137279.63     -807626.78     -9826.1345      0.36187879     0.058025262    26.828295      3669.4832    
      1560   3.12           303.48586      132991.59     -807631.43     -9652.0223      0.36185653     0.057000602    26.839752      3669.1014    
      1570   3.14           300.57097      128901.53     -807637.17     -9447.9642      0.36183412     0.05579898     26.832167      3668.7263    
      1580   3.16           294.35978      126198.67     -807639.51     -9342.2119      0.36181157     0.055177853    26.807194      3668.3729    
      1590   3.18           296.27367      129628.17     -807635.13     -9486.0444      0.36178888     0.056030884    26.758063      3668.0616    
      1600   3.2            313.31381      131133.2      -807633.5      -9613.3948      0.36176605     0.056786684    26.714314      3667.7872    
      1610   3.22           306.29991      137884.54     -807627.31     -9774.8781      0.36174307     0.05774424     26.808369      3667.4312    
      1620   3.24           306.57301      138884.94     -807624.72     -9860.7188      0.36171995     0.058255059    26.820049      3667.0653    
      1630   3.26           308.45002      141226.14     -807622.62     -9932.6566      0.36169669     0.058683826    26.823863      3666.696     
      1640   3.28           300.38381      136420.55     -807626.27     -9779.9845      0.36167329     0.057785553    26.784653      3666.3594    
      1650   3.3            314.35073      132564.43     -807634.09     -9588.7188      0.36164974     0.056659138    26.80038       3666.0093    
      1660   3.32           301.80587      127803.34     -807638.13     -9403.3611      0.36162605     0.055567511    26.751129      3665.6996    
      1670   3.34           298.04185      128362.1      -807636.86     -9423.7519      0.36160222     0.055691677    26.752224      3665.3882    
      1680   3.36           305.5278       128441.16     -807637.1      -9453.4935      0.36157824     0.055871146    26.742021      3665.0845    
      1690   3.38           311.93406      133376.91     -807633.29     -9603.6355      0.36155413     0.056762287    26.744074      3664.7783    
      1700   3.4            313.3836       135736.01     -807628.62     -9763.2373      0.36152987     0.057709486    26.820697      3664.4094    
      1710   3.42           294.12435      141393.73     -807620.68     -9930.7226      0.36150546     0.058703437    26.832559      3664.0311    
      1720   3.44           317.58638      137904.96     -807625.88     -9873.9315      0.36148092     0.058371691    26.827768      3663.6567    
      1730   3.46           305.70832      136991.54     -807628.2      -9745.8894      0.36145623     0.05761868     26.845217      3663.2685    
      1740   3.48           307.87518      130660.21     -807634.81     -9550.6603      0.3614314      0.056468344    26.848559      3662.8778    
      1750   3.5            295.71082      130129.01     -807635.45     -9479.0045      0.36140643     0.056048552    26.824621      3662.506     
      1760   3.52           295.1068       126920.13     -807638.57     -9383.7944      0.36138131     0.055489439    26.829215      3662.1307    
      1770   3.54           303.74769      130065.23     -807636.96     -9476.5191      0.36135605     0.056041667    26.814619      3661.7666    
      1780   3.56           294.76308      132858.74     -807631.51     -9620.2582      0.36133065     0.056895702    26.832564      3661.3887    
      1790   3.58           304.20863      137486.59     -807626.95     -9815.4542      0.36130511     0.058054226    26.817572      3661.0223    
      1800   3.6            297.10004      138903.99     -807624.42     -9872.7952      0.36127942     0.058397525    26.792587      3660.6747    
      1810   3.62           307.41581      137615.07     -807627.32     -9831.8705      0.3612536      0.058159613    26.809377      3660.3143    
      1820   3.64           299.48131      135376.31     -807629.92     -9720.8595      0.36122763     0.057507071    26.807741      3659.9548    
      1830   3.66           298.65373      130679.17     -807635.27     -9552.6391      0.36120151     0.056515991    26.767432      3659.6254    
      1840   3.68           293.25991      127704.66     -807638.27     -9437.1978      0.36117526     0.055837068    26.74842       3659.3097    
      1850   3.7            292.52362      126581.73     -807640.74     -9363.2878      0.36114886     0.055403814    26.765036      3658.981     
      1860   3.72           288.95914      129441.62     -807636.6      -9484.4145      0.36112232     0.056124661    26.807089      3658.6209    
      1870   3.74           298.10404      132546.38     -807632.62     -9659.0271      0.36109564     0.057162167    26.712181      3658.3302    
      1880   3.76           286.37153      137530.47     -807626.17     -9817.1885      0.36106881     0.058102483    26.745637      3658.0143    
      1890   3.78           290.62142      138607.43     -807625.73     -9851.6202      0.36104184     0.05831062     26.757988      3657.6886    
      1900   3.8            293.50472      138608.46     -807626.78     -9830.9822      0.36101474     0.058192836    26.770831      3657.3533    
      1910   3.82           298.75542      134120.09     -807631.22     -9712.8523      0.36098748     0.057497926    26.833414      3656.9728    
      1920   3.84           291.5854       130832.29     -807635.17     -9552.8308      0.36096009     0.056554926    26.789764      3656.6234    
      1930   3.86           292.66959      127028.2      -807640.19     -9395.123       0.36093255     0.055625504    26.774145      3656.2849    
      1940   3.88           283.4623       127587.73     -807638.66     -9400.7812      0.36090487     0.055663273    26.784698      3655.9385    
      1950   3.9            288.97826      129212.86     -807635.75     -9518.4044      0.36087705     0.056364081    26.819727      3655.5674    
      1960   3.92           293.9922       134170.46     -807631        -9688.6906      0.36084909     0.057376891    26.834078      3655.1862    
      1970   3.94           292.2009       137146.96     -807628.34     -9764.356       0.36082098     0.05782949     26.843022      3654.799     
      1980   3.96           294.96633      138856.39     -807625.99     -9847.8991      0.36079273     0.058328841    26.853604      3654.4046    
      1990   3.98           287.35048      137141.43     -807626.07     -9808.114       0.36076434     0.058097767    26.822319      3654.0319    
      2000   4              305.45935      134060.29     -807632.76     -9669.3566      0.36073581     0.057280376    26.842272      3653.6456    
      2010   4.02           289.7258       129291.94     -807636.31     -296.29219      0.36070713     0.056171108    26.891157      3653.2263    
      2020   4.04           297.22775      127673.21     -807639.76     -293.7137       0.36067831     0.055686726    26.893607      3652.8059    
      2030   4.06           289.2262       126868.16     -807638.04     -294.21499      0.36064935     0.055786247    26.865182      3652.405     
      2040   4.08           296.59467      131615.48     -807635.4      -297.72981      0.36062025     0.056457251    26.890703      3651.9874    
      2050   4.1            297.50279      133201.76     -807632.2      -301.04174      0.36059101     0.057089907    26.876458      3651.5797    
      2060   4.12           298.0707       138152.17     -807626.73     -306.39316      0.36056162     0.058109493    26.854999      3651.1864    
      2070   4.14           293.05701      137628.72     -807625.38     -306.9931       0.36053209     0.058228045    26.860783      3650.7896    
      2080   4.16           302.93481      138187.08     -807627.83     -305.73101      0.36050242     0.057993433    26.877119      3650.3823    
      2090   4.18           299.19045      131919.54     -807633.3      -299.65795      0.36047261     0.056846149    26.843027      3649.9976    
      2100   4.2            298.70282      131255.41     -807635.32     -297.36787      0.36044265     0.056416401    26.802707      3649.639     
      2110   4.22           293.49161      127462.76     -807638.04     -293.92871      0.36041256     0.055768583    26.823882      3649.2666    
      2120   4.24           290.29002      130670.9      -807635.93     -295.39551      0.36038232     0.056051589    26.899301      3648.846     
      2130   4.26           297.37452      129666.38     -807635.99     -296.29007      0.36035193     0.056226074    26.8954        3648.4284    
      2140   4.28           299.38526      135395.26     -807629.86     -302.55062      0.36032141     0.057418982    26.893359      3648.0124    
      2150   4.3            303.37039      136302.45     -807627.8      -305.11886      0.36029075     0.05791132     26.906231      3647.5887    
      2160   4.32           303.47153      138328.48     -807626.38     -306.38395      0.36025994     0.058156405    26.922355      3647.1555    
      2170   4.34           303.93146      135279.23     -807630.17     -302.58304      0.36022899     0.05743987     26.905301      3646.7334    
      2180   4.36           292.66648      133797.81     -807630.19     -300.85675      0.36019789     0.057117095    26.887466      3646.3229    
      2190   4.38           308.97564      128925.81     -807636.86     -296.33934      0.36016666     0.056264351    26.891284      3645.9104    
      2200   4.4            289.78743      128838.95     -807636.38     -293.99881      0.36013528     0.055824831    26.81823       3645.5432    
      2210   4.42           291.21803      129138.07     -807636.32     -294.19333      0.36010377     0.055866656    26.86364       3645.1482    
      2220   4.44           298.52715      132627.62     -807632.89     -298.51563      0.36007211     0.056692436    26.880263      3644.7432    
      2230   4.46           301.98286      136443.17     -807628.56     -303.23665      0.3600403      0.057594112    26.872852      3644.3429    
      2240   4.48           302.88341      137675.54     -807626.63     -305.17542      0.36000836     0.057967489    26.788491      3643.9941    
      2250   4.5            304.03316      138115.41     -807626.14     -305.6685       0.35997627     0.058066324    26.848926      3643.6085    
      2260   4.52           297.96527      135270.6      -807628.52     -302.42101      0.35994404     0.057454557    26.831643      3643.2335    
      2270   4.54           309.63285      132655.9      -807632.87     -299.49462      0.35991167     0.056903714    26.861851      3642.8404    
      2280   4.56           304.21882      128697.35     -807637.21     -294.36799      0.35987916     0.055934712    26.872872      3642.441     
      2290   4.58           289.90731      129754.56     -807635.45     -293.96221      0.35984651     0.055862675    26.870496      3642.0432    
      2300   4.6            307.12956      128110.12     -807638.17     -293.58216      0.35981371     0.055795538    26.887123      3641.6358    
      2310   4.62           307.76489      133687.16     -807632.46     -299.27016      0.35978077     0.056881754    26.868313      3641.2398    
      2320   4.64           309.51284      134034.54     -807629.7      -302.29338      0.35974769     0.057461656    26.86177       3640.8478    
      2330   4.66           292.80027      139053.45     -807623.7      -305.75727      0.35971447     0.05812546     26.840063      3640.4686    
      2340   4.68           300.15787      136865.69     -807627.34     -303.16825      0.35968111     0.057638624    26.844984      3640.0865    
      2350   4.7            302.96498      136867.01     -807626.68     -304.04869      0.3596476      0.0578114      26.882953      3639.6827    
      2360   4.72           304.81165      129598.3      -807633.1      -297.88168      0.35961396     0.056644112    26.900676      3639.2691    
      2370   4.74           304.98919      130474.62     -807636.3      -294.4342       0.35958017     0.055993812    26.818506      3638.9027    
      2380   4.76           302.27791      127915.19     -807638.28     -292.05643      0.35954624     0.055546864    26.84585       3638.5207    
      2390   4.78           306.11329      131173.17     -807634.04     -296.68948      0.35951216     0.056433383    26.892768      3638.1122    
      2400   4.8            305.34865      132378.37     -807631.5      -299.10555      0.35947795     0.056898358    26.896365      3637.702     
      2410   4.82           305.21163      136984.93     -807627.76     -302.62989      0.35944359     0.05757429     26.853765      3637.316     
      2420   4.84           300.18291      137311.75     -807626.09     -303.55451      0.35940909     0.057755739    26.871263      3636.9203    
      2430   4.86           306.57388      137009.72     -807625.98     -304.47423      0.35937446     0.057936314    26.895168      3636.5115    
      2440   4.88           305.76334      134934.2      -807629.19     -301.07044      0.35933967     0.057294174    26.866312      3636.1191    
      2450   4.9            310.29765      130466.03     -807634.3      -296.4791       0.35930475     0.056425919    26.862934      3635.7286    
      2460   4.92           299.73685      129889.33     -807635.83     -293.3359       0.35926969     0.055833154    26.857593      3635.3412    
      2470   4.94           292.26313      128828.74     -807635.04     -293.1702       0.35923448     0.055807085    26.82836       3634.97      
      2480   4.96           311.47887      131388.42     -807633.7      -297.02341      0.35919913     0.056546133    26.836229      3634.5945    
      2490   4.98           305.26054      133169.15     -807631        -298.87957      0.35916364     0.056905124    26.869639      3634.2008    
      2500   5              307.9672       137537.91     -807627.96     -302.22307      0.35912801     0.057547419    26.82839       3633.8296    
[...]
     98740   197.48         303.06353      131089.27     -807634.43     -9597.392       0.36236891     0.056597838    27.268928      46.170893    
     98750   197.5          296.35645      134048.06     -807630.6      -9678.8276      0.36238762     0.057075135    27.22645       45.804468    
     98760   197.52         303.78934      132688.05     -807631.56     -9675.8034      0.36240618     0.057054379    27.188534      45.43805     
     98770   197.54         301.08525      134522.74     -807630.31     -9694.0151      0.36242459     0.057158862    27.174446      45.071633    
     98780   197.56         313.141        132454.5      -807632.96     -9657.0201      0.36244287     0.056937857    27.199989      44.705212    
     98790   197.58         301.66471      136801.57     -807627.57     -9767.9052      0.362461       0.057588755    27.208084      44.338789    
     98800   197.6          300.85759      132975.03     -807629.49     -9700.2733      0.36247899     0.057187179    27.209045      43.972366    
     98810   197.62         300.53924      135240.89     -807629.76     -9680.3038      0.36249683     0.057066641    27.207536      43.605943    
     98820   197.64         307.88402      131722.67     -807633.33     -9596.7509      0.36251453     0.056571323    27.1892        43.239523    
     98830   197.66         299.15358      134879.6      -807628.67     -9699.1131      0.36253209     0.057171963    27.179006      42.873104    
     98840   197.68         320.85589      131085.27     -807633.62     -9637.3145      0.36254951     0.056804959    27.153683      42.506689    
     98850   197.7          301.79109      134475.21     -807630.34     -9654.0633      0.36256678     0.05690097     27.163904      42.140272    
     98860   197.72         312.37284      132653.4      -807631.81     -9655.8102      0.36258391     0.056908577    27.194002      41.773849    
     98870   197.74         307.17386      135568.95     -807627.53     -9768.7108      0.3626009      0.057571284    27.191833      41.407427    
     98880   197.76         302.91867      133677.72     -807628.7      -9715.7282      0.36261774     0.057256374    27.236674      41.040998    
     98890   197.78         305.76733      134890.64     -807630.44     -9670.9078      0.36263445     0.056989616    27.249472      40.674566    
     98900   197.8          308.17232      133131.99     -807631.2      -9661.2085      0.362651       0.056929859    27.264816      40.308133    
     98910   197.82         310.53074      133465.25     -807630.65     -9690.2129      0.36266742     0.057098187    27.275089      39.941697    
     98920   197.84         314.32968      132826.47     -807632.11     -9663.4318      0.36268369     0.056937828    27.239229      39.575267    
     98930   197.86         310.92035      132446.84     -807632.68     -9633.5759      0.36269982     0.05675939     27.212319      39.208841    
     98940   197.88         301.18023      133633.7      -807630.18     -9673.7976      0.36271581     0.056993858    27.222791      38.842413    
     98950   197.9          310.9648       132819.56     -807630.51     -9714.6816      0.36273165     0.057232229    27.239788      38.475982    
     98960   197.92         293.5299       135509.17     -807627.02     -9750.5647      0.36274735     0.057441141    27.244292      38.10955     
     98970   197.94         308.54194      133614.02     -807631.45     -9679.9857      0.36276291     0.05702291     27.236462      37.74312     
     98980   197.96         305.80835      134961.05     -807630.53     -9700.5403      0.36277832     0.057141566    27.232012      37.37669     
     98990   197.98         301.32522      134148.29     -807629.99     -9705.026       0.36279359     0.057165583    27.239197      37.010259    
     99000   198            301.63184      133904.84     -807629.64     -9720.4528      0.36280872     0.057254064    27.281736      36.643822    
     99010   198.02         300.29521      132657.29     -807632.59     -300.7316       0.3628237      0.056680141    27.291772      36.277383    
     99020   198.04         302.55468      133540.47     -807631.49     -302.22784      0.36283855     0.056959814    27.24494       35.910951    
     99030   198.06         299.69231      133415.63     -807629.99     -303.51766      0.36285324     0.057200586    27.230655      35.54452     
     99040   198.08         305.08216      134692.49     -807630.26     -304.08745      0.3628678      0.057305669    27.272782      35.178084    
     99050   198.1          300.92446      134338.16     -807631.12     -302.7575       0.36288221     0.057052772    27.299786      34.811644    
     99060   198.12         313.63157      132805.73     -807632.4      -303.34319      0.36289648     0.057160894    27.313451      34.445203    
     99070   198.14         290.35335      134279.85     -807628.22     -304.38324      0.36291061     0.057354645    27.313722      34.078762    
     99080   198.16         300.75608      132733.27     -807631.65     -302.56253      0.36292459     0.057009373    27.303737      33.712322    
     99090   198.18         297.92994      133536.94     -807632.45     -301.34816      0.36293843     0.056778395    27.299828      33.345882    
     99100   198.2          297.62323      131879.58     -807632.9      -300.95493      0.36295213     0.056702163    27.263471      32.979447    
     99110   198.22         295.57252      134745.65     -807630        -303.5817       0.36296568     0.057194931    27.248855      32.613014    
     99120   198.24         308.59137      132057.56     -807632.86     -302.66616      0.36297909     0.057020337    27.289239      32.246575    
     99130   198.26         300.73952      135011.7      -807630.58     -303.77671      0.36299236     0.057227466    27.324048      31.880133    
     99140   198.28         305.05236      133107.11     -807631.83     -303.2707       0.36300548     0.057130073    27.324173      31.513691    
     99150   198.3          291.83027      136734.53     -807627.42     -305.86422      0.36301846     0.05761658     27.334877      31.147247    
     99160   198.32         298.07829      132555.41     -807631.2      -303.08614      0.3630313      0.057091246    27.314696      30.780806    
     99170   198.34         301.9014       135209.25     -807631.58     -303.13923      0.36304399     0.057099249    27.305742      30.414366    
     99180   198.36         296.17762      131445.14     -807633.16     -300.93343      0.36305655     0.056681807    27.288454      30.047928    
     99190   198.38         298.84629      134022.53     -807630.46     -303.96785      0.36306895     0.057251393    27.283249      29.681491    
     99200   198.4          289.91154      131348.55     -807631.75     -301.50633      0.36308122     0.056785854    27.285484      29.315053    
     99210   198.42         313.14912      134357.05     -807633.79     -302.62105      0.36309334     0.0569939      27.308295      28.948613    
     99220   198.44         294.7737       133483.2      -807630.89     -303.1561       0.36310532     0.057092784    27.289134      28.582175    
     99230   198.46         296.0855       135953.29     -807628.24     -305.94574      0.36311715     0.057616273    27.288837      28.215737    
     99240   198.48         298.29476      134257.25     -807630.87     -303.69205      0.36312885     0.057190012    27.28319       27.849299    
     99250   198.5          304.10106      134402.83     -807632.49     -302.89919      0.3631404      0.05703889     27.293503      27.482861    
     99260   198.52         297.14363      132600.15     -807631.41     -303.09898      0.3631518      0.05707472     27.286112      27.116423    
     99270   198.54         298.34429      133176.3      -807631.57     -303.10514      0.36316306     0.057074111    27.240264      26.74999     
     99280   198.56         304.58621      132514.07     -807634.19     -301.40792      0.36317418     0.05675279     27.24426       26.383556    
     99290   198.58         290.65492      133231.39     -807631.64     -302.05491      0.36318516     0.056872893    27.305647      26.017116    
     99300   198.6          299.34089      134164.22     -807630.82     -304.12473      0.36319599     0.057260904    27.330775      25.650674    
     99310   198.62         284.39938      134397.25     -807628.12     -304.80925      0.36320668     0.057388098    27.310751      25.284234    
     99320   198.64         311.82519      134760.41     -807632.26     -304.46141      0.36321723     0.057320945    27.291615      24.917796    
     99330   198.66         290.10383      133857.68     -807630.21     -303.56745      0.36322763     0.057151001    27.304772      24.551356    
     99340   198.68         296.82377      134433.78     -807630.72     -303.97039      0.36323789     0.057225244    27.323124      24.184915    
     99350   198.7          299.22206      132531.97     -807633        -302.08002      0.36324801     0.056867781    27.304673      23.818476    
     99360   198.72         298.05484      133334.08     -807632.86     -302.03287      0.36325798     0.056857343    27.322347      23.452035    
     99370   198.74         303.91835      131591        -807634.4      -301.34501      0.36326781     0.056726319    27.313168      23.085595    
     99380   198.76         286.77018      134339.83     -807629.78     -303.54937      0.3632775      0.057139753    27.292463      22.719156    
     99390   198.78         295.16748      133514.11     -807630.8      -303.78218      0.36328704     0.057182073    27.288598      22.352718    
     99400   198.8          306.77451      133771.34     -807631.34     -304.85294      0.36329644     0.057382143    27.295449      21.98628     
     99410   198.82         300.54818      134087.36     -807630.71     -304.61525      0.3633057      0.057335943    27.292567      21.619842    
     99420   198.84         302.11052      134482.26     -807630.62     -304.89192      0.36331481     0.057386579    27.272796      21.253405    
     99430   198.86         298.03112      133256.47     -807631.55     -303.44718      0.36332378     0.057113239    27.301674      20.886966    
     99440   198.88         298.22645      133134.47     -807632.92     -302.06417      0.36333261     0.056851556    27.299784      20.520527    
     99450   198.9          305.04563      131959        -807633.48     -302.4647       0.36334129     0.056925579    27.293696      20.154089    
     99460   198.92         283.62833      133152.2      -807629.69     -303.28135      0.36334983     0.057077935    27.316748      19.787649    
     99470   198.94         292.57395      133232.92     -807631.34     -302.88419      0.36335823     0.057001872    27.296979      19.421211    
     99480   198.96         300.33827      133980.5      -807631.84     -303.38088      0.36336648     0.057094051    27.293056      19.054773    
     99490   198.98         309.50801      134076.47     -807631.52     -304.91999      0.3633746      0.057382418    27.232647      18.688339    
     99500   199            290.50678      135748.84     -807627.93     -305.86323      0.36338256     0.057558665    27.229929      18.321905    
     99510   199.02         301.34544      133787.13     -807631.54     -9717.9327      0.36339039     0.057147599    27.20589       17.955472    
     99520   199.04         294.35911      134022.77     -807630.72     -9711.2781      0.36339807     0.057107259    27.232642      17.589038    
     99530   199.06         296.69645      133053.65     -807632.27     -9670.3379      0.3634056      0.05686533     27.24413       17.222602    
     99540   199.08         291.06938      133444.78     -807630.22     -9706.6103      0.363413       0.057077465    27.239004      16.856167    
     99550   199.1          300.97153      132460.36     -807632.11     -9686.6858      0.36342025     0.056959167    27.253444      16.489731    
     99560   199.12         304.1051       133877.17     -807632.09     -9697.0763      0.36342736     0.05701915     27.225393      16.123296    
     99570   199.14         295.85488      134600.43     -807628.98     -9758.9292      0.36343432     0.057381747    27.177658      15.756864    
     99580   199.16         303.43267      134571.18     -807629.02     -9788.0911      0.36344114     0.057552137    27.188176      15.390431    
     99590   199.18         307.23086      134254.77     -807630.16     -9765.7069      0.36344782     0.057419467    27.205585      15.023997    
     99600   199.2          301.6686       133578.29     -807631.47     -9696.0931      0.36345435     0.057009133    27.240829      14.657561    
     99610   199.22         304.42529      133559.94     -807631.3      -9709.728       0.36346074     0.057088297    27.23142       14.291125    
     99620   199.24         299.7732       131878.77     -807631.55     -9679.6039      0.36346699     0.056910205    27.220859      13.924689    
     99630   199.26         304.55507      131873.46     -807632.77     -9658.8244      0.3634731      0.05678708     27.221205      13.558253    
     99640   199.28         307.15587      131214.66     -807633.53     -9643.995       0.36347906     0.056698964    27.216688      13.191818    
     99650   199.3          294.00551      134729.18     -807628.32     -9749.4063      0.36348487     0.057317781    27.192219      12.825383    
     99660   199.32         295.3487       134621.32     -807627.56     -9779.6661      0.36349055     0.057494784    27.205544      12.458947    
     99670   199.34         300.44627      136173.19     -807627.91     -9787.3105      0.36349608     0.05753885     27.181889      12.092512    
     99680   199.36         308.51131      134472.94     -807630.27     -9746.076       0.36350147     0.057295586    27.203089      11.726076    
     99690   199.38         303.95943      135091.93     -807628.62     -9777.0909      0.36350671     0.057477089    27.220776      11.359639    
     99700   199.4          304.56419      132637.96     -807630.78     -9711.3365      0.36351181     0.057089734    27.205229      10.993203    
     99710   199.42         297.86876      133608.21     -807631.77     -9646.2168      0.36351677     0.056706143    27.215633      10.626766    
     99720   199.44         313.84898      130910.71     -807634.74     -9623.3591      0.36352158     0.056571023    27.263226      10.260326    
     99730   199.46         295.51175      134069.15     -807629.15     -9720.4084      0.36352625     0.057140794    27.225911      9.8938885    
     99740   199.48         301.92971      133550.39     -807629.79     -9729.7614      0.36353078     0.057195063    27.228541      9.5274503    
     99750   199.5          319.52799      134737        -807631.1      -9765.3174      0.36353516     0.057403382    27.242658      9.1610115    
     99760   199.52         301.6944       135339.62     -807628.82     -9761.1339      0.3635394      0.057378121    27.210823      8.7945736    
     99770   199.54         299.95064      136130.03     -807627.11     -9810.6193      0.3635435      0.057668357    27.21539       8.4281354    
     99780   199.56         304.55859      133155.33     -807630.1      -9737.7444      0.36354745     0.057239365    27.238434      8.0616962    
     99790   199.58         307.67667      132805.12     -807632.06     -9688.2693      0.36355126     0.056947948    27.288702      7.6952555    
     99800   199.6          295.82786      131717.91     -807632.1      -9642.4941      0.36355493     0.056678308    27.227018      7.3288164    
     99810   199.62         303.44819      133196.15     -807631.49     -9698.3908      0.36355845     0.057006315    27.185905      6.9623783    
     99820   199.64         296.73937      133034.61     -807630.75     -9698.2942      0.36356183     0.057005218    27.191894      6.5959397    
     99830   199.66         307.72683      133573.97     -807631.78     -9721.378       0.36356507     0.057140392    27.181368      6.2295011    
     99840   199.68         301.37741      134850.14     -807629.59     -9771.189       0.36356816     0.057432683    27.174476      5.8630623    
     99850   199.7          300.5977       134545.3      -807629.19     -9789.5016      0.36357111     0.057539853    27.20572       5.4966226    
     99860   199.72         294.80677      134465.56     -807629.74     -9753.3923      0.36357392     0.057327171    27.206707      5.1301827    
     99870   199.74         300.03241      133499.58     -807632.36     -9699.5253      0.36357658     0.057010141    27.221185      4.7637423    
     99880   199.76         296.3551       133176.48     -807632.28     -9694.2229      0.3635791      0.056978581    27.204153      4.3973019    
     99890   199.78         305.66884      132041.96     -807633.45     -9705.9182      0.36358148     0.057046948    27.189735      4.0308616    
     99900   199.8          285.61829      133386.29     -807630.92     -9704.5293      0.36358371     0.057038434    27.240601      3.6644203    
     99910   199.82         293.65899      133150.5      -807632.82     -9684.7742      0.3635858      0.056921996    27.2628        3.2979786    
     99920   199.84         292.59689      134462.63     -807630.58     -9756.1495      0.36358775     0.057341196    27.209882      2.9315374    
     99930   199.86         291.09121      133833.57     -807629.37     -9793.8503      0.36358955     0.057562494    27.21972       2.5650958    
     99940   199.88         300.16558      133875.13     -807631.42     -9771.7108      0.36359121     0.05743211     27.264067      2.1986538    
     99950   199.9          303.77903      132581.11     -807633.9      -9711.4892      0.36359273     0.057077926    27.297297      1.8322114    
     99960   199.92         293.22008      133585.1      -807631.25     -9752.0752      0.3635941      0.057316248    27.282946      1.4657692    
     99970   199.94         285.36727      132884.09     -807631.01     -9726.8274      0.36359533     0.057167665    27.249393      1.0993271    
     99980   199.96         294.01998      132928.94     -807633.2      -9696.2628      0.36359641     0.056987857    27.231394      0.73288486   
     99990   199.98         288.65758      132764.68     -807633        -9681.0469      0.36359736     0.056898281    27.217061      0.36644253   
    100000   200            285.19137      134447.29     -807629.98     -9760.9805      0.36359816     0.057367948    27.24286       0            
Loop time of 3664.43 on 32 procs for 100000 steps with 1080 atoms

Performance: 4.716 ns/day, 5.089 hours/ns, 27.289 timesteps/s, 29.473 katom-step/s
64.2% CPU use with 32 MPI tasks x 1 OpenMP threads

MPI task timing breakdown:
Section |  min time  |  avg time  |  max time  |%varavg| %total
---------------------------------------------------------------
Pair    | 2504       | 2798       | 3101.4     | 288.5 | 76.35
Neigh   | 0.00082301 | 0.0026648  | 0.0072663  |   4.6 |  0.00
Comm    | 490.12     | 793.22     | 1086.8     | 541.7 | 21.65
Output  | 2.3497     | 2.3593     | 2.3814     |   0.5 |  0.06
Modify  | 64.314     | 64.774     | 65.295     |   3.3 |  1.77
Other   |            | 6.107      |            |       |  0.17

Nlocal:          33.75 ave          45 max          27 min
Histogram: 1 6 6 8 2 4 3 0 1 1
Nghost:        1023.88 ave        1042 max        1008 min
Histogram: 3 0 5 4 5 7 2 4 0 2
Neighs:              0 ave           0 max           0 min
Histogram: 32 0 0 0 0 0 0 0 0 0
FullNghs:      5361.31 ave        7211 max        4279 min
Histogram: 4 4 5 8 3 3 3 0 1 1

Total # of neighbors = 171562
Ave neighs/atom = 158.8537
Neighbor list builds = 2
Dangerous builds = 0

Total wall time: 1:04:29
