
units		metal
atom_style	atomic

read_data ${STRUCTURE}.data
read_data BaTiO3-sc333.data
Reading data file ...
  orthogonal box = (0 0 0) to (11.898253 11.898253 12.912076)
  2 by 4 by 4 MPI processor grid
  reading atoms ...
  135 atoms
  read_data CPU = 0.286 seconds
replicate $L $L $L
replicate 2 $L $L
replicate 2 2 $L
replicate 2 2 2
Replication is creating a 2x2x2 = 8 times larger system...
  orthogonal box = (0 0 0) to (23.796507 23.796507 25.824152)
  2 by 4 by 4 MPI processor grid
  1080 atoms
  replicate CPU = 0.004 seconds

pair_style allegro
pair_coeff	* * ${MODEL}.pth Ba Ti O
pair_coeff	* * BaTiO3-E0.pth Ba Ti O
mass 1 137.3
mass 2 47.9
mass 3 15.9994

timestep 0.002
compute polarization all allegro polarization 3
compute allegro will evaluate the quantity polarization of length 3 (src/compute_allegro.cpp:53)
compute polarizability all allegro polarizability 9
compute allegro will evaluate the quantity polarizability of length 9 (src/compute_allegro.cpp:53)

thermo_style custom pe fmax fnorm spcpu cpuremain

variable efield equal 1e-2*36.36
fix born all addbornforce 0.0 0.0 ${efield}
fix born all addbornforce 0.0 0.0 0.3636

thermo 10
min_style fire
#minimize 0.0 1e-6 100 100
velocity all create ${TEMP} ${SEED} dist gaussian rot yes mom yes
velocity all create 320 ${SEED} dist gaussian rot yes mom yes
velocity all create 320 29829 dist gaussian rot yes mom yes
fix nvt all nvt temp ${TEMP} ${TEMP} $(100*dt)
fix nvt all nvt temp 320 ${TEMP} $(100*dt)
fix nvt all nvt temp 320 320 $(100*dt)
fix nvt all nvt temp 320 320 0.2000000000000000111
run 5000
Neighbor list info ...
  update: every = 1 steps, delay = 0 steps, check = yes
  max neighbors/atom: 2000, page size: 100000
  master list distance cutoff = 8
  ghost atom cutoff = 8
  binsize = 8, bins = 3 3 4
  1 neighbor lists, perpetual/occasional/extra = 1 0 0
  (1) pair allegro/kk, perpetual
      attributes: full, newton on, kokkos_device
      pair build: full/bin/kk/device
      stencil: full/bin/3d
      bin: kk/device
Per MPI rank memory allocation (min/avg/max) = 3.516 | 3.516 | 3.516 Mbytes
    PotEng          Fmax          Fnorm          S/CPU         CPULeft    
-807708.29      1.5956918      37.043134      0              0            
-807645.48      3.8471081      45.981352      2.297732       2171.7076    
-807635.2       2.3863946      35.854839      25.854699      1179.9852    
-807605.46      3.1151139      38.498472      25.88912       849.06801    
-807603.2       3.9379958      51.076041      25.861032      683.46831    
-807566.36      3.5688999      41.174793      25.814141      584.0233     
-807601.67      3.0819718      39.669729      25.900758      517.49092    
-807644.98      3.4388911      35.277388      25.908913      469.84888    
-807683.76      2.8074328      34.849324      25.867746      434.05862    
-807666.28      2.9417109      34.855089      25.824538      406.17117    
-807652.36      3.2345401      35.215506      25.925539      383.70983    
-807659.43      2.2407507      27.232556      25.876558      365.29469    
-807629.04      2.5374753      30.734713      25.899165      349.87062    
-807586.16      2.9689341      39.64961       25.863456      336.78005    
-807569.9       2.8286613      38.125164      25.909138      325.48067    
-807631.77      3.2158094      33.342518      25.883846      315.64857    
-807653.22      2.8114517      30.425461      25.852687      307.0113     
-807663.47      2.593117       33.831809      25.89931       299.3249     
-807645.65      4.0885373      44.272945      25.929225      292.43771    
-807680.21      2.7059522      36.013978      25.91288       286.24104    
-807640.75      3.5096402      39.073048      25.893957      280.63222    
-807616.45      3.2948263      38.771462      25.93363       275.50732    
-807562.88      3.8617836      45.170188      25.931695      270.81389    
-807604.55      4.3475515      49.637671      25.894332      266.50658    
-807612.33      3.8579065      39.598055      25.869624      262.53335    
-807640.23      2.9500941      36.291161      25.927947      258.83054    
-807640.39      4.7311644      46.128328      25.94142       255.37924    
-807681.42      2.8726193      38.293973      25.888189      252.16892    
-807660.93      3.6531823      36.075776      25.853742      249.169      
-807636.46      2.7165779      32.855959      25.921498      246.33287    
-807606.53      3.8208809      34.612034      25.932503      243.65753    
-807605.4       3.6797224      42.379026      25.910301      241.13492    
-807596.65      3.0759416      36.05454       25.826979      238.76405    
-807607.44      2.3346339      33.07874       25.938126      236.48994    
-807640.77      2.6529324      29.945112      25.95183       234.32412    
-807672.24      2.4176979      31.863303      25.923868      232.26557    
-807675.51      2.3343226      32.401052      25.882274      230.30794    
-807642.94      4.5717824      38.616126      25.9415        228.4242     
-807647.03      3.0180152      31.18375       25.922324      226.62279    
-807621.67      4.3243081      35.024526      25.912252      224.89575    
-807600.37      3.8848701      43.027501      25.910864      223.236      
-807568.63      4.0716235      41.465659      25.945989      221.63254    
-807622.92      3.1021106      35.364634      25.935034      220.08886    
-807648.13      3.2756697      34.768736      25.911412      218.60278    
-807672.16      3.0910918      34.936747      25.917594      217.16575    
-807640.81      4.7417429      45.751756      25.908491      215.77681    
-807665.42      2.9716744      34.978209      25.915933      214.43039    
-807643.88      4.1935369      36.797337      25.888105      213.12883    
-807624.27      3.2820481      38.136337      25.923164      211.8605     
-807564.21      4.1958919      43.546206      25.941942      210.62561    
-807599.78      4.0175499      43.969199      25.939982      209.42497    
-807620.85      3.7782428      36.804577      25.83353       208.27028    
-807653.15      2.9415105      33.176989      25.926032      207.13321    
-807639.78      4.5836949      42.023849      25.931136      206.02386    
-807671.27      2.98497        34.672909      25.90701       204.94427    
-807664.24      3.7773211      33.312975      25.84781       203.89706    
-807642.87      3.1152901      30.880729      25.913771      202.86563    
-807600.13      4.4465139      35.102253      25.966863      201.85071    
-807597.2       3.5814268      38.29093       25.957735      200.85854    
-807604.68      3.4602515      38.644993      25.870223      199.89669    
-807616.97      3.2949216      32.584993      25.919358      198.94864    
-807634.94      2.962953       32.48811       25.946008      198.01617    
-807663.09      2.9815102      33.123211      25.931216      197.10291    
-807674.34      2.4029218      34.547725      25.855484      196.21423    
-807646.05      4.0417966      37.008317      25.918842      195.33479    
-807634.89      2.5170133      32.722962      25.938713      194.46856    
-807615.04      3.4906519      34.093512      25.905786      193.62012    
-807603.3       3.8232847      44.569521      25.885081      192.78748    
-807578.63      3.5910989      40.20846       25.899601      191.96659    
-807612.86      2.7521478      36.662336      25.964852      191.15225    
-807643.15      3.8796081      36.303948      25.929276      190.35341    
-807671.74      2.5655616      36.836827      25.864367      189.57206    
-807647.31      4.0992799      42.73001       25.872284      188.80097    
-807651.65      3.0655847      36.306658      25.92614       188.03572    
-807640.3       4.5078085      36.223457      25.904066      187.28262    
-807623.67      4.0967431      39.447196      25.908594      186.53893    
-807573.59      3.5418587      40.748576      25.904366      185.805      
-807588.42      3.2801743      40.62577       25.923586      185.07853    
-807621.75      3.3739916      33.778354      25.913571      184.36161    
-807657.36      2.9943732      32.560887      25.943095      183.65073    
-807645.5       4.5925019      37.722843      25.91058       182.95052    
-807658.92      3.4138201      34.9913        25.86421       182.26165    
-807661.48      2.3517496      32.983705      25.902217      181.57726    
-807644.37      4.1043567      32.074309      25.914917      180.89911    
-807602.45      2.8836336      34.796425      25.934425      180.22648    
-807585.48      4.3688619      39.17383       25.922809      179.56145    
-807603.84      3.6038253      39.604806      25.883834      178.90571    
-807625.68      3.9016554      33.021711      25.866771      178.25737    
-807637.53      2.9656971      33.39656       25.913984      177.61169    
-807651.58      3.4332558      35.824185      25.913529      176.97187    
-807670.18      2.6362299      35.53797       25.845559      176.34232    
-807651.99      4.608892       35.330166      25.823436      175.71959    
-807631.42      2.9627498      33.130898      25.861183      175.09947    
-807604.61      3.9845499      35.794467      25.917568      174.48069    
-807606.64      4.1154664      42.6106        25.914688      173.86706    
-807595.23      3.8346381      36.921888      25.82884       173.26368    
-807616.68      2.6650723      34.833795      25.933843      172.65822    
-807638.43      3.4855459      35.682318      25.884044      172.06037    
-807668.81      2.4452126      35.061449      25.90322       171.46566    
-807654.99      3.4512822      37.235693      25.852166      170.87825    
-807646.33      3.5337236      34.393409      25.929048      170.29027    
-807632.1       4.4489907      34.070221      25.926564      169.70645    
-807623.51      3.3752243      36.868064      25.910823      169.12742    
-807591.3       3.5678599      37.837599      25.935534      168.55072    
-807593.07      3.6689672      38.458852      25.958146      167.97642    
-807624.31      3.4511097      31.851166      25.953516      167.40598    
-807657.34      2.4755246      32.349394      25.923452      166.84069    
-807657.11      2.7950743      34.169064      25.920674      166.27891    
-807651.42      4.1376766      35.502409      25.890592      165.72202    
-807653.26      3.1631035      32.989357      25.858838      165.16996    
-807642.23      2.9846502      32.18399       25.85528       164.6211     
-807609.91      3.4056573      35.655721      25.893299      164.07316    
-807582.44      2.9608992      38.386589      25.907715      163.52737    
-807606.74      3.4732766      37.097888      25.901257      162.98474    
-807633.06      2.6057522      32.590624      25.859282      162.44697    
-807648.16      3.5733561      32.747735      25.855439      161.91203    
-807646.65      3.7353378      37.009054      25.903501      161.37726    
-807663.99      2.617398       34.177307      25.883544      160.84601    
-807651.99      3.4888999      33.951015      25.873637      160.3177     
-807632.53      2.5722927      33.548439      25.860338      159.7924     
-807595.85      4.0057426      37.395098      25.933317      159.26597    
-807602.33      3.6918014      40.160171      25.934665      158.7418     
-807604.95      3.8652874      37.770398      25.884891      158.22221    
-807627.57      3.1388307      33.607304      25.910401      157.70361    
-807634.53      4.2318119      36.960836      25.88901       157.18813    
-807662.84      3.4991615      34.673762      25.917305      156.67344    
-807657.42      2.8299864      35.815376      25.79885       156.16606    
-807646.39      2.9777391      34.023221      25.910842      155.65564    
-807620.55      3.6237164      35.345996      25.875989      155.14868    
-807615.6       2.8633842      36.398818      25.920702      154.64167    
-807596.68      3.3683         38.715844      25.879951      154.13825    
-807601.71      2.8732552      36.487003      25.871346      153.63698    
-807618.69      3.2225991      34.639074      25.929194      153.13505    
-807651.29      3.1404525      33.425718      25.914514      152.63547    
-807659.11      3.4182328      34.995705      25.826631      152.14117    
-807649.56      4.8482595      36.381663      25.844369      151.64774    
-807643.65      3.8450053      33.801454      25.859418      151.15527    
-807633.15      3.7102905      33.37896       25.867121      150.66404    
-807612.13      3.7274868      36.832089      25.921059      150.17222    
-807585.96      4.1921674      39.478417      25.93661       149.68132    
-807602.95      2.823272       36.471108      25.924827      149.19238    
-807631.48      3.4945379      34.205381      25.908817      148.70551    
-807652.25      3.0942417      33.416296      25.860693      148.22187    
-807646.76      4.5086688      37.855602      25.834828      147.74056    
-807655.18      2.8244695      35.393962      25.883642      147.25874    
-807646.71      4.1194101      34.573509      25.900976      146.77762    
-807632.96      2.9450568      33.319946      25.905957      146.29761    
-807597.59      4.1003436      36.415335      25.848148      145.82096    
-807595.41      3.0693203      38.240518      25.924602      145.3428     
-807609.84      3.4265404      36.461238      25.903811      144.86662    
-807635.64      2.9369547      32.906595      25.904537      144.39161    
-807639.64      4.0095373      36.105564      25.884133      143.91848    
-807654.52      3.0790642      34.909305      25.854333      143.44752    
-807656.1       3.4559401      35.291483      25.850537      142.97778    
-807646.35      2.660387       33.558169      25.79733       142.51091    
-807619.41      3.3838601      34.314343      25.917784      142.04106    
-807607.17      2.8349297      35.825672      25.920951      141.57218    
-807602.28      3.1502997      36.698688      25.895551      141.10518    
-807614.57      3.532995       34.872356      25.841356      140.64096    
-807624.84      2.9266196      33.172979      25.933754      140.17476    
-807647.42      3.6665379      33.369691      25.910842      139.71029    
-807659.06      2.9392996      33.855994      25.865925      139.2482     
-807653.44      3.5928098      34.162348      25.896745      138.78609    
-807636.26      3.4728623      33.871423      25.892306      138.32504    
-807626.39      3.3991851      32.875978      25.903553      137.86456    
-807614.58      3.2962542      35.947676      25.913393      137.40469    
-807599.8       3.2653638      36.805682      25.887844      136.94648    
-807607.8       3.4817375      35.096542      25.897837      136.48883    
-807633.01      3.4673555      33.11073       25.922063      136.03132    
-807652.61      3.0463714      33.343309      25.91389       135.57489    
-807651.65      3.7098599      35.06281       25.866481      135.12067    
-807647.9       3.8713639      34.859097      25.786217      134.66956    
-807641.57      3.5189917      33.446775      25.859161      134.21709    
-807629.61      2.9903604      33.618231      25.78598       133.76746    
-807602.41      3.2856402      36.168704      25.819692      133.31759    
-807598.52      3.3157367      36.789256      25.910359      132.86592    
-807613.68      2.8689719      35.12252       25.917615      132.4148     
-807641.02      2.5920161      32.367464      25.826566      131.96689    
-807644.13      3.2185531      34.958294      25.851751      131.51899    
-807651.38      3.1919197      34.565856      25.890251      131.07074    
-807650.98      2.7572447      34.057269      25.890705      130.62316    
-807643.14      2.8251052      33.751021      25.904453      130.1759     
-807618.83      3.0088104      34.793683      25.885144      129.72982    
-807599.09      3.2349032      37.514792      25.900929      129.28398    
-807603.3       3.8259945      37.407895      25.844164      128.84025    
-807620         3.4197577      35.675501      25.878721      128.39626    
-807633.73      3.5225773      34.043626      25.842286      127.9538     
-807644.58      3.9980581      34.579639      25.866287      127.51133    
-807654.98      2.6528047      34.733337      25.850974      127.06984    
-807649.65      3.9697073      34.913944      25.859943      126.6287     
-807634.38      3.5137938      34.008376      25.883069      126.18758    
-807615.85      3.616373       34.646977      25.87004       125.74734    
-807609.13      2.9558954      36.641152      25.886218      125.30728    
-807604.28      3.4816964      37.57744       25.88064       124.8679     
-807616.57      2.9193379      34.897387      25.902486      124.42856    
-807634.08      3.4459135      33.574034      25.86496       123.99064    
-807650.52      3.0675072      34.481188      25.866091      123.55322    
-807650.71      4.1775608      35.570678      25.835763      123.11701    
-807643.74      3.5320025      34.971334      25.869614      122.68052    
-807634.87      4.3214273      34.300678      25.924299      122.24331    
-807622.23      4.0486761      35.677687      25.88589       121.80746    
-807605.86      5.1236555      38.49692       25.887552      121.37207    
-807601.95      3.4799285      38.039098      25.887219      120.93718    
-807618.13      4.329023       35.214976      25.905917      120.50236    
-807638.23      2.6785295      34.216835      25.879143      120.06859    
-807648.36      3.0398092      34.447291      25.855124      119.6358     
-807647.37      2.8492981      35.495463      25.862105      119.20332    
-807643.74      3.3624782      34.544349      25.903794      118.77039    
-807639.22      3.4414249      32.899483      25.925895      118.33745    
-807619.78      2.6921332      34.255489      25.925843      117.90496    
-807601.02      3.1804324      37.535238      25.918879      117.47307    
-807604.93      3.6987163      37.056098      25.881061      117.04238    
-807625.72      3.4350746      34.687317      25.901652      116.61169    
-807637.44      3.0913568      34.730716      25.850754      116.18245    
-807645.23      2.9090466      34.826381      25.855357      115.75351    
-807650.49      3.0483142      34.963325      25.837767      115.32531    
-807649.54      3.6491457      34.206885      25.837488      114.8975     
-807632.84      3.0691816      34.150406      25.837851      114.47006    
-807613.77      3.2842509      35.125906      25.863465      114.04249    
-807604.34      3.2734673      37.249228      25.869764      113.61517    
-807608.78      2.838389       37.510822      25.863236      113.18835    
-807623.87      2.8632805      34.217854      25.860064      112.76196    
-807635.44      3.8097513      34.302426      25.880107      112.33554    
-807647.33      2.7519008      34.884223      25.904628      111.90903    
-807652.3       4.0235434      34.637265      25.874808      111.48343    
-807644.02      3.0408639      34.198349      25.883555      111.05802    
-807629.59      3.579938       33.150853      25.881366      110.633      
-807615.88      3.6965269      35.566867      25.881192      110.20831    
-807606.33      3.3669668      36.613461      25.880056      109.78399    
-807610.74      3.2738089      36.068343      25.882329      109.35995    
-807620.78      3.9376374      34.9661        25.904839      108.93585    
-807642.16      3.2722353      33.387202      25.883569      108.51245    
-807649.89      3.7771046      35.202321      25.844922      108.09003    
-807649.77      2.9859618      34.360736      25.834909      107.66809    
-807639.25      4.1461283      34.607375      25.858         107.24605    
-807632.21      2.9306464      33.640385      25.857664      106.82433    
-807614.84      3.520349       36.042094      25.88305       106.40247    
-807603.8       3.3846919      37.355757      25.844166      105.98156    
-807609.1       3.5707632      35.884221      25.878133      105.56037    
-807628.2       3.4056948      34.868306      25.860433      105.13977    
-807640.74      3.0987908      33.841677      25.849546      104.71962    
-807649.05      3.3214279      34.223299      25.865128      104.2995     
-807646.44      3.6198848      34.769966      25.8537        103.87984    
-807643.27      3.3432357      32.69691       25.860517      103.46034    
-807629.66      3.0598912      33.384623      25.858511      103.04114    
-807611.68      3.12569        35.808925      25.872542      102.62199    
-807603.56      3.5558366      36.825075      25.890914      102.20282    
-807614.44      3.6236307      35.2172        25.880263      101.78408    
-807628.06      3.3640773      34.302726      25.867774      101.36579    
-807637.95      4.3935561      34.847002      25.858945      100.94789    
-807647.74      3.5388297      34.899453      25.882836      100.52988    
-807647.54      4.5695958      35.357489      25.860341      100.11246    
-807641.51      3.3409925      33.795056      25.841229      99.695558    
-807625.5       4.731697       34.410738      25.883206      99.278284    
-807611.07      3.1268919      35.951087      25.87293       98.861401    
-807605.25      3.4101002      36.839431      25.872065      98.44477     
-807613.62      3.0113651      37.103036      25.84748       98.028724    
-807626.34      3.1454664      34.800545      25.82991       97.613153    
-807641.11      2.6490003      34.679845      25.857581      97.197415    
-807647.03      2.7243473      34.856468      25.824171      96.782366    
-807648.27      4.0907225      34.779125      25.827683      96.367482    
-807636.67      3.1321749      34.412115      25.804005      95.953136    
-807624.52      3.1485495      34.805902      25.872832      95.538058    
-807612.36      3.5703181      35.82578       25.871514      95.123216    
-807607.83      3.4950847      37.697898      25.843146      94.708967    
-807612.63      3.1880045      35.941746      25.860542      94.294693    
-807629.81      3.3425688      34.366387      25.895068      93.880172    
-807642.58      3.1973332      34.813764      25.888728      93.465948    
-807648.76      2.9967964      35.29637       25.887595      93.051946    
-807642.81      3.3756392      35.7991        25.905422      92.637922    
-807635.86      3.8323684      34.795005      25.898168      92.224198    
-807624.13      3.8058392      35.623258      25.88256       91.810873    
-807613.7       4.0159621      35.891256      25.875792      91.397832    
-807605.52      4.2907209      37.196011      25.899396      90.984693    
-807617.24      3.3801864      34.812965      25.884216      90.571938    
-807634.09      3.7438627      34.259714      25.89607       90.159231    
-807642.82      2.9987645      34.210396      25.87337       89.74699     
-807647.78      2.977607       34.683728      25.832338      89.335429    
-807643.33      3.0899726      35.396126      25.822052      88.924168    
-807639.41      3.6530654      34.866803      25.825978      88.513032    
-807620.72      3.7866869      35.822254      25.813765      88.102211    
-807611.16      3.3784963      37.37977       25.819276      87.691493    
-807607.66      3.0776288      37.353041      25.834454      87.280764    
-807624.13      3.5065693      35.920168      25.842539      86.87011     
-807631.26      3.4004997      34.478973      25.834706      86.459712    
-807644.48      3.6250815      34.54458       25.851134      86.049292    
-807647.14      3.8024672      35.434238      25.86598       85.63887     
-807646.98      2.6628457      33.923318      25.826975      85.229048    
-807631.97      3.4799591      35.096772      25.844821      84.819187    
-807622.4       3.2437048      34.579424      25.894014      84.408947    
-807610.67      2.8793023      35.990512      25.862574      83.999213    
-807613.47      3.1778333      36.249828      25.885976      83.589387    
-807622.36      3.3779372      34.029802      25.901691      83.179555    
-807634.52      2.7168659      33.996861      25.921503      82.769677    
-807645.13      2.9887739      33.709987      25.882944      82.360365    
-807646.99      3.1960153      35.368713      25.860575      81.951441    
-807642.36      2.7782212      34.007084      25.848343      81.542794    
-807632.51      3.026001       34.238353      25.830949      81.134471    
-807620.3       2.8200131      34.757059      25.842969      80.726168    
-807611.99      3.1677334      35.995791      25.845132      80.317986    
-807612.38      3.3718374      35.716811      25.859387      79.909804    
-807622.58      3.3231994      34.186205      25.84348       79.501922    
-807635.19      2.9885594      35.527466      25.863386      79.093983    
-807644.58      3.9688951      34.818246      25.84467       78.686367    
-807645.78      2.9200502      35.666045      25.840337      78.278929    
-807638.52      3.2974558      35.598855      25.800033      77.872012    
-807631.53      3.0587041      35.281229      25.841078      77.46483     
-807615.92      3.4335572      36.195527      25.882765      77.057388    
-807608.75      3.276885       36.827286      25.885048      76.650062    
-807610.43      3.6015185      35.925329      25.864923      76.243058    
-807622.34      3.2103046      35.410545      25.848421      75.836336    
-807636.17      3.3368506      34.319044      25.852668      75.429704    
-807645.38      3.6046315      34.079751      25.873336      75.023012    
-807642.58      4.1490003      35.548623      25.878643      74.616402    
-807642.04      3.7432671      34.115583      25.864848      74.210043    
-807630.63      3.3137993      33.659095      25.850334      73.803936    
-807615.67      3.8247748      36.121427      25.840766      73.398035    
-807607.36      3.2245234      36.619519      25.848533      72.992186    
-807613.63      3.2048094      36.673163      25.855647      72.586396    
-807626.36      3.4046821      35.092343      25.861414      72.180675    
-807636.21      3.3079903      35.138329      25.840197      71.775253    
-807641.62      3.3375921      35.834313      25.861195      71.36977     
-807645.86      3.1705968      35.702378      25.854531      70.964459    
-807639.96      3.4264241      34.916802      25.837893      70.559399    
-807626.19      3.7815386      35.448443      25.85921       70.154277    
-807615.73      3.2783572      36.304051      25.860102      69.749261    
-807610.96      3.1312242      37.458821      25.900121      69.344039    
-807617.55      4.0159581      35.688962      25.865376      68.939208    
-807625.32      3.864658       35.181065      25.889031      68.534303    
-807637.31      4.28303        34.924608      25.87739       68.129602    
-807644.58      3.651161       35.176388      25.848267      67.725235    
-807644.61      3.9758064      35.152545      25.830361      67.321111    
-807634.84      4.6456749      35.815522      25.869395      66.916794    
-807626.81      3.0387964      34.289719      25.875122      66.512541    
-807615.95      3.7619936      35.963414      25.850596      66.108576    
-807612.98      3.0583187      36.59978       25.870937      65.704564    
-807616.37      2.7597856      35.659497      25.875323      65.300624    
-807628.98      3.3795235      34.765973      25.860363      64.896896    
-807639.99      3.5981594      35.152902      25.863315      64.493247    
-807644.68      3.3985376      35.189049      25.895769      64.089469    
-807642.33      3.0270478      35.114947      25.893118      63.685812    
-807635.53      3.4706567      34.625567      25.855497      63.28252     
-807626.1       2.7845934      34.483223      25.863456      62.87927     
-807617.64      3.0166514      35.630849      25.824579      62.476383    
-807611.4       3.0301776      36.156743      25.850815      62.073409    
-807617.88      2.8577391      35.130256      25.868451      61.67041     
-807630.73      2.6685095      34.599332      25.864797      61.26753     
-807641.11      3.4189973      34.88903       25.85623       60.8648      
-807642.17      3.347718       35.229734      25.865222      60.462104    
-807641.82      3.2571041      35.733842      25.895633      60.059303    
-807637.52      3.3068943      34.718719      25.904005      59.656544    
-807624.28      3.0792086      35.121907      25.889153      59.253974    
-807612.85      3.7503662      36.612722      25.861433      58.85167     
-807611.49      3.8367942      36.399564      25.857585      58.449479    
-807620.58      4.1532872      35.66663       25.849224      58.047427    
-807631.52      3.5794999      35.285191      25.865899      57.645359    
-807639.87      4.039694       35.079275      25.886457      57.243254    
-807642.69      3.9075667      35.473996      25.857823      56.841408    
-807641.78      3.2855741      35.090625      25.829559      56.439815    
-807633.23      4.0006062      35.085154      25.823904      56.038335    
-807619.71      3.2168966      35.920863      25.853574      55.636762    
-807610.75      3.4136362      36.088646      25.843541      55.235329    
-807613.86      3.6025729      36.111044      25.81456       54.834141    
-807620.6       3.5212935      35.842803      25.877432      54.432674    
-807630.31      5.2775707      35.197075      25.884777      54.031248    
-807639.35      3.4778483      35.36557       25.857608      53.630056    
-807642.8       3.5290225      35.039933      25.838355      53.229047    
-807637.53      3.6334146      35.324716      25.838709      52.828114    
-807630.04      3.3491985      34.70756       25.890117      52.42698     
-807620.68      4.2397924      34.600852      25.879027      52.025986    
-807612.88      2.9235456      36.278094      25.879102      51.62507     
-807613.04      3.0919128      36.472888      25.827738      51.224499    
-807619.38      2.8151215      36.424705      25.83003       50.823989    
-807631.9       3.0567609      35.374792      25.889214      50.423249    
-807638.28      2.9315002      36.443043      25.853042      50.022768    
-807642.21      3.5741246      35.579386      25.845911      49.622396    
-807636.64      3.4735711      35.597988      25.841713      49.222117    
-807630.75      3.4490343      35.441137      25.867782      48.82178     
-807620.43      3.1424068      35.19202       25.856959      48.421569    
-807612.79      3.3217978      36.483322      25.877334      48.021332    
-807614.33      3.1231406      36.114299      25.862736      47.621236    
-807622.77      3.2302104      35.832241      25.857767      47.221234    
-807633.45      5.1400949      34.882309      25.850885      46.821333    
-807640.33      3.5821502      35.434138      25.837464      46.421561    
-807640.76      4.2515653      35.604979      25.856781      46.021769    
-807639.9       3.3533748      34.529935      25.858761      45.622036    
-807627.97      4.4719645      34.917654      25.871868      45.222312    
-807620.11      3.2409879      34.733297      25.865423      44.822685    
-807613.34      4.6958028      35.829145      25.912406      44.422922    
-807617.02      3.2839607      35.361177      25.87963       44.02337     
-807624.77      3.6665846      34.878933      25.906541      43.623772    
-807635.9       2.9238531      34.101351      25.884061      43.224337    
-807640.45      3.1211127      34.047219      25.923356      42.824808    
-807642.67      3.8609536      34.702923      25.894059      42.425468    
-807637.83      2.7635677      34.016348      25.88043       42.026249    
-807628.34      3.4402544      34.117661      25.905983      41.626993    
-807618.3       3.1510888      35.298405      25.891681      41.227861    
-807614.95      3.5812517      36.392954      25.923023      40.828672    
-807617.95      3.4355216      35.854254      25.88634       40.429691    
-807626.05      3.5313882      35.139464      25.86424       40.030858    
-807636.54      3.4409143      34.234687      25.878643      39.632031    
-807642.72      3.4175338      33.876481      25.900528      39.233186    
-807641.12      3.6479591      34.73729       25.868114      38.834521    
-807637.55      2.964257       33.932678      25.85786       38.435954    
-807629.46      2.8272385      34.259993      25.904464      38.037281    
-807617.96      3.7832754      34.619876      25.888614      37.638725    
-807614.64      3.2763989      35.959816      25.844987      37.24038     
-807618.67      3.4775594      35.146797      25.876847      36.841983    
-807628.6       3.8975012      34.171623      25.852038      36.443728    
-807635.84      3.1886559      34.614762      25.836201      36.045582    
-807643.18      3.3149875      33.878921      25.86582       35.647392    
-807639.9       3.1998601      34.69913       25.929186      35.249054    
-807637.47      2.3693937      33.401125      25.925388      34.85079     
-807626.06      2.3505196      34.584242      25.91347       34.452624    
-807619.04      2.987247       35.514672      25.945025      34.05442     
-807615.46      3.0874993      35.525077      25.916421      33.656364    
-807620.93      3.4372005      35.817778      25.898589      33.258421    
-807628.15      2.9934465      35.107835      25.901709      32.860525    
-807638.11      2.8390287      34.399662      25.904385      32.462678    
-807639.77      3.3829755      35.013102      25.918359      32.064847    
-807639.82      3.4200264      35.124385      25.935894      31.667023    
-807632.57      2.6899022      34.717131      25.926004      31.269286    
-807626.24      3.1198719      34.509562      25.924858      30.871608    
-807615.1       3.0219636      36.403345      25.910503      30.474026    
-807616.23      3.011004       35.234415      25.889205      30.076556    
-807619.66      3.3002946      35.965339      25.891611      29.679132    
-807630.95      3.9403061      35.475707      25.894509      29.281753    
-807636.46      3.043274       35.495688      25.898149      28.884417    
-807641.09      3.3111813      35.690756      25.855605      28.487241    
-807637.54      3.3501667      35.510609      25.864194      28.090092    
-807632.14      4.0302363      35.140438      25.852043      27.693021    
-807623.71      3.3072263      35.631755      25.846961      27.29601     
-807612.92      3.0065993      36.23855       25.834421      26.899076    
-807613.82      3.1825268      36.778179      25.817316      26.502226    
-807621.03      3.6521924      35.492228      25.813736      26.105429    
-807632.16      2.9842958      34.737206      25.865021      25.70856     
-807635.73      3.5002645      35.666884      25.910099      25.31164     
-807641.54      3.2944045      35.193121      25.915422      24.914758    
-807637.15      3.2839635      35.341055      25.894275      24.517971    
-807633.02      3.1535444      34.863551      25.930295      24.121158    
-807619.26      3.5000324      36.485877      25.929173      23.724398    
-807614.91      3.6838375      37.865775      25.92108       23.327704    
-807615.46      3.4130321      36.471384      25.957396      22.930989    
-807624         3.8350761      35.945927      25.895174      22.534445    
-807628.7       3.6634675      36.237724      25.928351      22.137885    
-807641.46      3.0674104      34.997289      25.961844      21.741312    
-807638.95      3.6830758      35.733176      25.949977      21.344812    
-807636.97      3.0738127      34.921032      25.927257      20.948402    
-807631.48      3.7658287      34.882461      25.88869       20.552106    
-807623.23      3.5130592      35.144794      25.870718      20.155886    
-807615.2       3.6240938      36.335712      25.895605      19.759667    
-807617.32      3.3822728      36.011847      25.874828      19.363527    
-807624.55      4.1035495      34.797016      25.881333      18.967419    
-807634.65      2.9379382      34.30674       25.913551      18.571304    
-807638.96      3.1301909      34.694925      25.903068      18.17525     
-807639.48      4.0916852      34.253752      25.932629      17.779196    
-807638.17      3.3028885      33.699735      25.927098      17.383196    
-807629.33      3.1695039      34.919592      25.992143      16.987151    
-807623.9       3.1465367      35.083601      25.905833      16.591272    
-807615.14      3.2777395      35.477728      25.948124      16.19538     
-807619.1       3.3414567      35.468439      25.916942      15.799574    
-807625.61      3.6992738      35.056984      25.915633      15.403813    
-807635.8       3.3122862      34.188662      25.926478      15.008082    
-807636.03      4.0566665      35.034416      25.922296      14.612398    
-807641.44      3.5789963      34.217664      25.930009      14.216749    
-807634.5       4.0578221      35.434132      25.953443      13.821116    
-807632.85      3.2241303      33.876083      25.939174      13.425544    
-807616.12      3.2506188      36.637915      25.92506       13.030029    
-807618.81      2.8420447      35.669497      25.961731      12.634518    
-807618.88      3.5133072      35.475704      25.943248      12.23907     
-807628.92      2.9529829      34.646612      25.965506      11.843643    
-807630.94      2.8177389      34.615571      25.880155      11.448339    
-807641.43      2.6204644      34.266739      25.938323      11.05302     
-807639.82      3.2409933      34.882386      25.969764      10.657716    
-807636.02      3.0436681      33.967344      25.981583      10.262446    
-807626.99      3.6624502      34.209949      25.988619      9.8672144    
-807621.73      3.5329356      34.570584      25.967461      9.4720423    
-807618.41      3.873048       35.504207      25.946831      9.0769271    
-807621.51      3.6417162      35.116102      25.927872      8.6818655    
-807626.24      4.2668911      34.374721      25.918002      8.2868496    
-807634.12      3.3763156      34.577543      25.909724      7.891877     
-807639.88      2.9482693      34.179648      26.105181      7.4968278    
-807636.86      2.9278804      34.476127      26.202394      7.1017752    
-807631.86      3.5905569      34.763661      26.242696      6.7067575    
-807626.56      3.4856815      35.038352      26.246198      6.3117958    
-807621.53      2.9635869      35.18165       26.217358      5.9169047    
-807617.33      2.6390051      36.079886      26.219696      5.5220679    
-807623.02      2.9916655      34.488615      26.24297       5.1272774    
-807627.13      2.9677329      34.902471      26.244447      4.7325426    
-807635.24      3.7978255      34.700901      26.241835      4.3378647    
-807634.88      3.3353271      36.187334      26.255679      3.9432382    
-807635.64      3.9337331      35.697215      26.278674      3.5486617    
-807630.85      3.055404       35.818467      26.291181      3.1541393    
-807626.54      3.980176       34.96786       26.246457      2.7596835    
-807618.32      3.2360526      35.652724      26.23793       2.3652838    
-807619.18      3.294423       35.993154      26.178617      1.9709463    
-807621.11      3.4473741      35.740017      26.183692      1.5766581    
-807629.16      3.5330928      35.179805      26.190914      1.182419     
-807633.44      3.0271364      34.682571      26.246943      0.78822656   
-807636.67      4.5616771      35.003196      26.256666      0.39408671   
-807634.87      3.5709634      35.07281       26.269543      0            
Loop time of 197.03 on 32 procs for 5000 steps with 1080 atoms

Performance: 4.385 ns/day, 5.473 hours/ns, 25.377 timesteps/s, 27.407 katom-step/s
67.5% CPU use with 32 MPI tasks x 1 OpenMP threads

MPI task timing breakdown:
Section |  min time  |  avg time  |  max time  |%varavg| %total
---------------------------------------------------------------
Pair    | 101.68     | 144.56     | 192.78     | 309.6 | 73.37
Neigh   | 0          | 0          | 0          |   0.0 |  0.00
Comm    | 1.8959     | 50.12      | 92.996     | 525.8 | 25.44
Output  | 0.024967   | 0.031604   | 0.033245   |   0.7 |  0.02
Modify  | 1.9868     | 2.002      | 2.0164     |   0.6 |  1.02
Other   |            | 0.3138     |            |       |  0.16

Nlocal:          33.75 ave          48 max          21 min
Histogram: 8 8 0 0 0 0 0 8 0 8
Nghost:        1106.25 ave        1119 max        1092 min
Histogram: 8 0 8 0 0 0 0 0 8 8
Neighs:              0 ave           0 max           0 min
Histogram: 32 0 0 0 0 0 0 0 0 0
FullNghs:       5494.5 ave        7896 max        3378 min
Histogram: 8 8 0 0 0 0 0 8 0 8

Total # of neighbors = 175824
Ave neighs/atom = 162.8
Neighbor list builds = 0
Dangerous builds = 0

reset_timestep 0


variable interval equal 1000
thermo 10

variable nintervals equal $(v_PERIOD/v_interval)
variable nintervals equal 100
variable efield equal 1e-2*36.36*cos((step/${PERIOD})*2*3.14)
variable efield equal 1e-2*36.36*cos((step/100000)*2*3.14)
fix born all addbornforce 0.0 0.0 v_efield

variable Px equal f_born[1]+c_polarization[1]
variable Py equal f_born[2]+c_polarization[2]
variable Pz equal (f_born[3]+c_polarization[3])/vol
variable pe equal pe

fix aveP all ave/time 1 $(v_interval/2) ${interval} v_efield v_Pz v_pe f_born file Pz.${MODEL}.${STRUCTURE}.${TEMP}.$L.${ITER}
fix aveP all ave/time 1 500 ${interval} v_efield v_Pz v_pe f_born file Pz.${MODEL}.${STRUCTURE}.${TEMP}.$L.${ITER}
fix aveP all ave/time 1 500 1000 v_efield v_Pz v_pe f_born file Pz.${MODEL}.${STRUCTURE}.${TEMP}.$L.${ITER}
fix aveP all ave/time 1 500 1000 v_efield v_Pz v_pe f_born file Pz.BaTiO3-E0.${STRUCTURE}.${TEMP}.$L.${ITER}
fix aveP all ave/time 1 500 1000 v_efield v_Pz v_pe f_born file Pz.BaTiO3-E0.BaTiO3-sc333.${TEMP}.$L.${ITER}
fix aveP all ave/time 1 500 1000 v_efield v_Pz v_pe f_born file Pz.BaTiO3-E0.BaTiO3-sc333.320.$L.${ITER}
fix aveP all ave/time 1 500 1000 v_efield v_Pz v_pe f_born file Pz.BaTiO3-E0.BaTiO3-sc333.320.2.${ITER}
fix aveP all ave/time 1 500 1000 v_efield v_Pz v_pe f_born file Pz.BaTiO3-E0.BaTiO3-sc333.320.2.0

thermo_style custom step time temp press pe f_born v_efield v_Pz spcpu cpuremain

# dump 4a all custom 1000 dump.hyst.${MODEL}.${STRUCTURE}.${TEMP}.$L.${ITER}.bin id type xu yu zu fx fy fz
# dump_modify 4a sort id

fix nvt all nvt temp ${TEMP} ${TEMP} $(100*dt)
fix nvt all nvt temp 320 ${TEMP} $(100*dt)
fix nvt all nvt temp 320 320 $(100*dt)
fix nvt all nvt temp 320 320 0.2000000000000000111

run $(v_PERIOD)
run 100000
WARNING: non-constant efield is experimental, strongly distrust scalar/vector output (src/fix_addbornforce.cpp:193)
Per MPI rank memory allocation (min/avg/max) = 3.516 | 3.516 | 3.516 Mbytes
   Step          Time           Temp          Press          PotEng         f_born        v_efield         v_Pz          S/CPU         CPULeft    
         0   0              329.62699      129696.09     -807634.87     -294.79133      0.3636         0.055441932    0              0            
        10   0.02           337.86044      132168.38     -807631.83     -299.14937      0.36359993     0.056261567    28.620045      3493.7241    
        20   0.04           336.95465      139354.31     -807623.32     -307.58819      0.36359971     0.057848704    28.659492      3490.9611    
        30   0.06           333.11814      141541.04     -807618.28     -312.22875      0.36359935     0.058721521    28.635087      3490.7985    
        40   0.08           333.52483      142121.42     -807618.62     -312.06267      0.36359885     0.058690369    28.62888       3490.7318    
        50   0.1            330.918        139072.32     -807622.81     -307.65894      0.36359821     0.057862251    28.637378      3490.3456    
        60   0.12           341.91597      133778.44     -807629.31     -302.9379       0.36359742     0.056974477    28.631617      3490.0875    
        70   0.14           329.87614      129672.63     -807634.05     -296.70599      0.36359649     0.055802563    28.577346      3490.7509    
        80   0.16           330.77003      127767.28     -807638.08     -293.03144      0.36359541     0.05511164     28.548873      3491.5967    
        90   0.18           323.88694      128837.59     -807635.32     -295.17189      0.36359419     0.055514391    28.589899      3491.6187    
       100   0.2            321.85329      132947.5      -807628.83     -301.73362      0.36359283     0.056748699    28.574534      3491.7543    
       110   0.22           333.95422      139172.44     -807624.1      -308.45956      0.36359132     0.058013924    28.570805      3491.8431    
       120   0.24           324.5653       141067.43     -807620.57     -311.0138       0.36358968     0.05849458     28.53296       3492.2452    
       130   0.26           329.12908      142293.38     -807620.28     -312.16783      0.36358788     0.058711916    28.542624      3492.4399    
       140   0.28           317.89843      137225.69     -807623.29     -307.90107      0.36358595     0.057909741    28.552647      3492.4698    
       150   0.3            331.51         133692.62     -807630.91     -302.24259      0.36358387     0.056845826    28.597528      3492.0827    
       160   0.32           324.66157      127663.14     -807636.76     -295.62548      0.36358165     0.055601618    28.560798      3491.981     
       170   0.34           312.41326      128708.8      -807635.86     -294.85604      0.36357928     0.055457261    28.583747      3491.6849    
       180   0.36           315.88159      128483.87     -807635.31     -296.11943      0.36357677     0.055695268    28.61496       3491.1713    
       190   0.38           324.68577      134538.77     -807629.61     -303.10247      0.36357412     0.05700908     28.615572      3490.671     
       200   0.4            322.00864      137348.65     -807624.82     -307.67368      0.36357132     0.057869303    28.58252       3490.3874    
       210   0.42           317.3752       141979.34     -807619.26     -312.62856      0.36356838     0.058801723    28.582263      3490.0991    
       220   0.44           317.96124      140365.89     -807622.05     -310.02374      0.3635653      0.058312283    28.622001      3489.5847    
       230   0.46           314.14554      138815.84     -807623.47     -308.04555      0.36356207     0.057940719    28.625497      3489.0663    
       240   0.48           331.78993      131165.7      -807633.42     -300.61411      0.3635587      0.056543454    28.623146      3488.5739    
       250   0.5            321.10405      128988.96     -807635.94     -296.58322      0.36355519     0.055785809    28.612958      3488.1425    
       260   0.52           309.27949      126669.74     -807637.29     -293.70313      0.36355153     0.055244635    28.584078      3487.8529    
       270   0.54           323.0119       129920.79     -807635.14     -297.73715      0.36354773     0.056004007    28.597037      3487.5003    
       280   0.56           324.76343      133236.06     -807629.93     -303.27644      0.36354379     0.05704656     28.62136       3487.0421    
       290   0.58           309.62773      139405.11     -807622.48     -308.66364      0.3635397      0.05806055     28.57194       3486.7991    
       300   0.6            321.59301      140556.45     -807621.52     -311.32016      0.36353547     0.058560931    28.596512      3486.449     
       310   0.62           320.28286      139617.21     -807622        -310.64067      0.3635311      0.058433818    28.59441       3486.1073    
       320   0.64           327.17488      137265.53     -807627.12     -306.51577      0.36352658     0.057658611    28.60711       3485.7168    
       330   0.66           316.35605      132202.91     -807631.43     -300.69096      0.36352192     0.056563631    28.626076      3485.2588    
       340   0.68           316.88984      128833.08     -807636.12     -295.99101      0.36351712     0.05568025     28.606607      3484.8766    
       350   0.7            314.2552       128107.36     -807636.91     -294.87045      0.36351217     0.055470211    28.610906      3484.4816    
       360   0.72           315.91088      131348.54     -807633.31     -298.73187      0.36350708     0.056197397    28.571141      3484.2236    
       370   0.74           309.44364      134558.02     -807628        -303.21325      0.36350185     0.057041255    28.584803      3483.9157    
       380   0.76           315.72363      139523.28     -807623.11     -308.94843      0.36349647     0.058121032    28.606584      3483.5357    
       390   0.78           312.74361      140689.56     -807621.33     -310.28974      0.36349095     0.058374252    28.624605      3483.1011    
       400   0.8            325.85468      139515.63     -807622.4      -311.00536      0.36348529     0.058509793    28.597757      3482.7524    
       410   0.82           317.8668       134936.91     -807627.39     -304.87666      0.36347948     0.057357709    28.546926      3482.5549    
       420   0.84           319.04654      131882.23     -807632.04     -300.25473      0.36347353     0.056489091    28.597391      3482.2036    
       430   0.86           313.32111      127567.74     -807635.72     -295.74346      0.36346744     0.055641287    28.595763      3481.8569    
       440   0.88           309.28941      129915.1      -807633.54     -297.20654      0.3634612      0.055917509    28.613925      3481.4599    
       450   0.9            327.6589       130036.79     -807635.5      -297.89179      0.36345482     0.056047419    28.609071      3481.0781    
       460   0.92           311.35178      136865.11     -807626.26     -304.67093      0.3634483      0.057323923    28.603235      3480.7132    
       470   0.94           321.51811      137874.9      -807624.13     -308.22859      0.36344163     0.057994361    28.628937      3480.2825    
       480   0.96           321.72985      141915.75     -807620.59     -311.50825      0.36343482     0.05861254     28.605407      3479.9146    
       490   0.98           323.97099      137281.19     -807624.59     -307.80779      0.36342786     0.057917379    28.579291      3479.6124    
       500   1              326.36703      136886.51     -807626.81     -305.60466      0.36342077     0.057503959    28.598945      3479.2605    
       510   1.02           320.03973      130206.65     -807632.37     -9571.301       0.36341353     0.056281728    28.514169      3479.1114    
       520   1.04           318.3806       130300.37     -807634.31     -9491.1047      0.36340614     0.055811287    28.500683      3478.9864    
       530   1.06           310.36943      127736.97     -807634.56     -9443.1418      0.36339862     0.055530398    28.45472       3478.9592    
       540   1.08           322.44616      133221.32     -807630.49     -9618.1354      0.36339095     0.056560641    28.47148       3478.8819    
       550   1.1            336.45232      134541.04     -807628.97     -9725.886       0.36338313     0.057195512    28.449355      3478.8439    
       560   1.12           331.86814      141250.57     -807621.84     -9922.4842      0.36337518     0.058352935    28.481969      3478.7234    
       570   1.14           325.63195      139611.02     -807622.04     -9884.4961      0.36336707     0.058130827    28.502584      3478.5504    
       580   1.16           326.32309      139611.84     -807622.49     -9863.6907      0.36335883     0.058009786    28.531505      3478.3104    
       590   1.18           336.44623      134136.85     -807628.86     -9701.2481      0.36335044     0.057055755    28.528475      3478.0728    
       600   1.2            319.77048      132393.99     -807630.14     -9579.9476      0.36334191     0.056343675    28.494433      3477.901     
       610   1.22           315.57049      129452.63     -807633.43     -9451.5106      0.36333324     0.055589611    28.506908      3477.6981    
       620   1.24           323.93967      130215.49     -807634.53     -9449.065       0.36332442     0.055576576    28.569956      3477.3665    
       630   1.26           334.05213      132806.67     -807630.39     -9622.5964      0.36331546     0.056598631    28.526775      3477.1178    
       640   1.28           334.46206      136199.48     -807625.91     -9766.3645      0.36330636     0.057445692    28.498034      3476.9208    
       650   1.3            339.76793      138687.33     -807623.27     -9870.8906      0.36329711     0.058061992    28.501988      3476.7117    
       660   1.32           335.43622      139701.6      -807622.37     -9879.6434      0.36328772     0.058114979    28.491025      3476.5185    
       670   1.34           320.56953      139194.92     -807620.49     -9875.5475      0.36327819     0.05809241     28.535036      3476.2405    
       680   1.36           337.13923      134220.3      -807628.64     -9689.5815      0.36326851     0.056999993    28.564792      3475.9069    
       690   1.38           326.09266      132177.36     -807631.21     -9557.0185      0.36325869     0.056221697    28.553336      3475.5931    
       700   1.4            324.9236       127863.17     -807634.6      -9448.3381      0.36324873     0.05558388     28.532557      3475.3145    
       710   1.42           339.17626      130733.65     -807634.15     -9529.8396      0.36323863     0.056064907    28.474129      3475.1343    
       720   1.44           332.06875      132703.95     -807631.15     -9603.7372      0.36322838     0.056501248    28.490441      3474.9218    
       730   1.46           322.88593      137478.79     -807625.29     -9757.9176      0.36321798     0.057409973    28.513772      3474.6663    
       740   1.48           326.79955      138753.82     -807623.08     -9856.1832      0.36320745     0.057989794    28.537419      3474.3693    
       750   1.5            327.08272      140582.61     -807621.18     -9928.2645      0.36319677     0.058415608    28.541873      3474.0637    
       760   1.52           324.70883      137011.74     -807624.8      -9814.2425      0.36318595     0.05774645     28.563965      3473.7214    
       770   1.54           317.07215      135027.24     -807628.46     -9670.6376      0.36317498     0.056903205    28.519633      3473.4491    
       780   1.56           330.42302      129704.95     -807635.18     -9527.5176      0.36316387     0.056062785    28.490061      3473.2212    
       790   1.58           316.85573      129994.83     -807634.02     -9514.6455      0.36315262     0.055988776    28.492596      3472.9861    
       800   1.6            319.16416      129747.4      -807634.72     -9511.6102      0.36314122     0.055972671    28.505064      3472.7291    
       810   1.62           318.06764      133765.12     -807631.37     -9621.1379      0.36312968     0.056619004    28.516259      3472.453     
       820   1.64           313.06801      137306.83     -807625.75     -9786.1261      0.363118       0.057591789    28.526156      3472.1603    
       830   1.66           314.64753      139707.11     -807623.05     -9884.9715      0.36310618     0.058175393    28.517219      3471.8793    
       840   1.68           316.62654      138930.25     -807623.81     -9872.2794      0.36309421     0.058102612    28.50751       3471.6108    
       850   1.7            328.65178      136433.6      -807628.53     -9776.6549      0.3630821      0.05754174     28.54605       3471.2851    
       860   1.72           315.91202      132518.31     -807630.17     -9671.804       0.36306984     0.056926548    28.583279      3470.9063    
       870   1.74           308.81116      131667.41     -807632.49     -9564.124       0.36305745     0.056294685    28.586862      3470.5231    
       880   1.76           305.35379      129058.63     -807634.42     -9489.2091      0.3630449      0.055855663    28.582147      3470.1472    
       890   1.78           313.35718      130647.34     -807633.63     -9549.4536      0.36303222     0.05621224     28.585474      3469.7672    
       900   1.8            315.46522      134088.35     -807629.74     -9683.0402      0.36301939     0.057000603    28.613231      3469.3507    
       910   1.82           312.9461       137825.12     -807624.88     -9825.9233      0.36300642     0.057843771    28.600365      3468.9527    
       920   1.84           320.21212      137991.93     -807625.39     -9842.0001      0.36299331     0.057940506    28.581942      3468.58      
       930   1.86           323.62459      138195.17     -807625.66     -9844.8269      0.36298005     0.057959264    28.564117      3468.2311    
       940   1.88           309.9803       135235.62     -807626.05     -9772.1098      0.36296665     0.057533283    28.547425      3467.9037    
       950   1.9            318.56456      133161.84     -807630.49     -9664.568       0.36295311     0.056902253    28.496109      3467.6416    
       960   1.92           309.93869      130302.84     -807634.36     -9500.8006      0.36293942     0.055940146    28.461426      3467.4218    
       970   1.94           314.06024      131274.46     -807635.13     -9490.781       0.36292559     0.055883281    28.473425      3467.1841    
       980   1.96           312.43634      132276.27     -807631.55     -9596.545       0.36291162     0.056508212    28.512702      3466.8953    
       990   1.98           322.63374      135026.71     -807629.36     -9707.9974      0.3628975      0.057166711    28.512282      3466.6057    
      1000   2              328.99684      135735.25     -807628.26     -9766.9958      0.36288325     0.05751639     28.371159      3466.4876    
      1010   2.02           308.18322      139253.93     -807622.78     -307.66385      0.36286884     0.057979479    28.588145      3466.1027    
      1020   2.04           310.61413      138552.5      -807622.34     -308.40586      0.3628543      0.058121641    28.606794      3465.6963    
      1030   2.06           316.90826      135203.95     -807626.82     -304.62979      0.36283961     0.057412333    28.603576      3465.2948    
      1040   2.08           323.59964      132614.61     -807632.6      -299.53162      0.36282478     0.05645381     28.639844      3464.8522    
      1050   2.1            306.25737      130386.2      -807632.42     -297.1431       0.3628098      0.056005948    28.631678      3464.4207    
      1060   2.12           327.41465      130639.36     -807634.29     -298.03765      0.36279469     0.056176894    28.610749      3464.0147    
      1070   2.14           321.74128      130893.08     -807632.79     -298.57348      0.36277943     0.05628026     28.594996      3463.6275    
      1080   2.16           328.11918      134359.26     -807630.13     -301.91189      0.36276402     0.056911957    28.582535      3463.2549    
      1090   2.18           323.31553      136102.12     -807625.81     -305.43986      0.36274848     0.057579466    28.577743      3462.8881    
      1100   2.2            323.25583      140462.56     -807620.82     -310.16321      0.36273279     0.058472409    28.559331      3462.5419    
      1110   2.22           325.77913      136729.89     -807625        -306.25615      0.36271695     0.057738364    28.619144      3462.1305    
      1120   2.24           328.35962      136284.12     -807627.77     -303.53455      0.36270098     0.057227783    28.62941       3461.709     
      1130   2.26           319.37618      132090.58     -807631.22     -298.71619      0.36268486     0.056321843    28.588065      3461.333     
      1140   2.28           326.23492      131708.72     -807632.14     -298.46635      0.3626686      0.05627726     28.584692      3460.9611    
      1150   2.3            323.81877      128733.47     -807634.74     -295.40026      0.36265219     0.055701652    28.594414      3460.5794    
      1160   2.32           321.58388      133359.96     -807630.96     -298.59483      0.36263564     0.056306602    28.584218      3460.2088    
      1170   2.34           329.29131      133923.07     -807627.52     -303.03676      0.36261895     0.057146854    28.595476      3459.8269    
      1180   2.36           336.50953      139353.82     -807622.78     -308.57913      0.36260212     0.058194739    28.6084        3459.4324    
      1190   2.38           329.48955      138840.34     -807623.72     -306.52736      0.36258514     0.057810504    28.641219      3459.0054    
      1200   2.4            335.54618      137914.46     -807624.92     -305.97855      0.36256802     0.057709724    28.638137      3458.5827    
      1210   2.42           342.00125      133696.08     -807628.97     -302.71907      0.36255076     0.057097681    28.629491      3458.1699    
      1220   2.44           325.97316      132306.24     -807628.97     -300.35072      0.36253335     0.056653694    28.557998      3457.8289    
      1230   2.46           329.2541       129945.84     -807633.93     -295.76386      0.3625158      0.055791197    28.544392      3457.5012    
      1240   2.48           320.57197      130978.57     -807633.37     -295.02753      0.36249811     0.055655016    28.548586      3457.169     
      1250   2.5            324.52572      133462.36     -807628.85     -300.12259      0.36248028     0.05661895     28.564305      3456.8212    
      1260   2.52           330.36117      135854.57     -807624.95     -304.82761      0.3624623      0.057509419    28.583009      3456.4556    
      1270   2.54           328.88039      139037.97     -807623.42     -306.05209      0.36244418     0.057743318    28.588339      3456.085     
      1280   2.56           325.44498      137133.53     -807623.89     -305.15923      0.36242592     0.057577763    28.605342      3455.6988    
      1290   2.58           341.23592      138571.72     -807623.25     -307.95921      0.36240751     0.058109017    28.626371      3455.2935    
      1300   2.6            329.10248      134214.08     -807627.06     -302.61946      0.36238896     0.05710438     28.587089      3454.9255    
      1310   2.62           342.58374      133020.68     -807632.75     -298.78721      0.36237027     0.056384141    28.602159      3454.5438    
      1320   2.64           323.38006      128544.8      -807634.6      -294.54382      0.36235143     0.05558626     28.616124      3454.1499    
      1330   2.66           334.25207      132126.99     -807631.67     -299.18817      0.36233245     0.056465697    28.607485      3453.7646    
      1340   2.68           320.54647      132041.34     -807628.79     -300.57736      0.36231333     0.056730873    28.625175      3453.3638    
      1350   2.7            322.67519      137112.6      -807626.03     -303.8226       0.36229407     0.057346429    28.645631      3452.9456    
      1360   2.72           323.87777      136367.36     -807625.66     -304.75233      0.36227466     0.057524996    28.643368      3452.5303    
      1370   2.74           319.4206       139777.84     -807621.1      -308.99598      0.36225511     0.058329174    28.607771      3452.1474    
      1380   2.76           321.62513      136553.24     -807624.96     -305.82517      0.36223542     0.057733759    28.633132      3451.7427    
      1390   2.78           332.44024      134581.19     -807631.98     -300.46378      0.36221558     0.05672474     28.591148      3451.3753    
      1400   2.8            309.59236      131075.15     -807632.83     -296.74771      0.3621956      0.056026272    28.53069       3451.0603    
      1410   2.82           321.57824      130177.25     -807633.8      -297.68815      0.36217548     0.05620695     28.542491      3450.7347    
      1420   2.84           320.7325       130725.62     -807632.69     -298.90457      0.36215522     0.056439781    28.606411      3450.3544    
      1430   2.86           314.96669      133336.7      -807631.69     -299.27112      0.36213481     0.05651218     28.588299      3449.9898    
      1440   2.88           313.28247      135705.3      -807627.73     -303.13406      0.36211426     0.057244876    28.533697      3449.6712    
      1450   2.9            322.5866       138591.96     -807624.3      -308.04707      0.36209357     0.058175991    28.567104      3449.3243    
      1460   2.92           308.30088      139421.76     -807622.45     -308.05446      0.36207273     0.058180734    28.635314      3448.921     
      1470   2.94           314.37798      136159.7      -807627.88     -303.50685      0.36205176     0.057325172    28.615575      3448.5347    
      1480   2.96           322.45093      132696.02     -807632.44     -300.11534      0.36203064     0.056687903    28.613477      3448.1506    
      1490   2.98           305.43124      131078.41     -807631.36     -298.94749      0.36200937     0.056470628    28.603982      3447.7746    
      1500   3              307.91193      130686.43     -807633.54     -297.09755      0.36198796     0.056124496    28.615844      3447.3894    
      1510   3.02           311.12399      130144.71     -807635.45     -9461.829       0.36196642     0.055860441    28.542389      3447.0634    
      1520   3.04           309.23988      133172.53     -807630.24     -9617.6277      0.36194472     0.056783643    28.532219      3446.7451    
      1530   3.06           318.53039      135868.08     -807627.16     -9760.1409      0.36192289     0.057628535    28.538714      3446.4213    
      1540   3.08           317.25558      138021.74     -807625.05     -9819.7605      0.36190091     0.057984078    28.569309      3446.0732    
      1550   3.1            321.45636      136919.58     -807627.27     -9764.7474      0.36187879     0.057662759    28.610298      3445.6932    
      1560   3.12           315.84459      136287.49     -807627.59     -9728.3401      0.36185653     0.057451302    28.590834      3445.3285    
      1570   3.14           309.48891      133787.13     -807629.06     -9651.1627      0.36183412     0.056999055    28.480074      3445.0494    
      1580   3.16           320.39314      131164.58     -807634.04     -9536.0758      0.36181157     0.05632287     28.468228      3444.7784    
      1590   3.18           307.12922      130640.61     -807635.02     -9442.2745      0.36178888     0.05577235     28.467951      3444.5066    
      1600   3.2            304.46621      132291.03     -807631.91     -9524.5599      0.36176605     0.056261933    28.449381      3444.248     
      1610   3.22           311.48897      133509.64     -807628.91     -9650.3303      0.36174307     0.057008484    28.477548      3443.9669    
      1620   3.24           316.34728      136899.57     -807625.92     -9760.3912      0.36171995     0.057662345    28.487781      3443.6774    
      1630   3.26           315.10248      138357.46     -807625.01     -9778.64        0.36169669     0.05777387     28.491029      3443.3846    
      1640   3.28           316.43613      138531.15     -807624.93     -9779.6592      0.36167329     0.057783631    28.524477      3443.0669    
      1650   3.3            312.89777      135858.8      -807625.99     -9721.9128      0.36164974     0.057446173    28.600445      3442.6924    
      1660   3.32           323.26394      132696.48     -807631.62     -9578.7225      0.36162605     0.056603778    28.582341      3442.3318    
      1670   3.34           318.38381      129663.73     -807634        -9472.9399      0.36160222     0.055982364    28.576562      3441.9755    
      1680   3.36           315.54722      130681.25     -807632.6      -9496.7472      0.36157824     0.05612678     28.604313      3441.5993    
      1690   3.38           318.77891      131747.22     -807631.09     -9552.2842      0.36155413     0.056458775    28.561382      3441.2541    
      1700   3.4            322.59719      134976.29     -807628.62     -9641.2529      0.36152987     0.056988449    28.530724      3440.9306    
      1710   3.42           323.52219      136712.4      -807626.09     -9716.7574      0.36150546     0.057438625    28.545843      3440.596     
      1720   3.44           320.77181      138694.58     -807622.98     -9797.8789      0.36148092     0.057922091    28.529013      3440.2731    
      1730   3.46           318.5593       137597.15     -807623.65     -9761.2737      0.36145623     0.057709633    28.512833      3439.9612    
      1740   3.48           328.63966      135440.66     -807627.06     -9688.8013      0.3614314      0.057285104    28.516882      3439.646     
      1750   3.5            326.2932       133224.54     -807630.6      -9560.7465      0.36140643     0.056531886    28.479038      3439.3566    
      1760   3.52           320.95851      131757.42     -807630.7      -9528.8797      0.36138131     0.056347376    28.496472      3439.0545    
      1770   3.54           316.7662       131795.13     -807630.89     -9500.5219      0.36135605     0.056183613    28.499734      3438.7496    
      1780   3.56           327.60161      131828.82     -807631.31     -9531.9775      0.36133065     0.056373596    28.501668      3438.4428    
      1790   3.58           327.18545      134474.32     -807628.01     -9632.4864      0.36130511     0.056972049    28.52067       3438.1228    
      1800   3.6            333.9806       136641.41     -807625.91     -9729.1369      0.36127942     0.057547787    28.549474      3437.7831    
      1810   3.62           332.57833      137417.94     -807623.85     -9787.053       0.3612536      0.057894499    28.555492      3437.4393    
      1820   3.64           323.17885      137417.58     -807624.52     -9725.2514      0.36122763     0.057533053    28.596058      3437.0686    
      1830   3.66           329.12266      135542.74     -807627.85     -9645.8776      0.36120151     0.057067615    28.559907      3436.7219    
      1840   3.68           320.70582      132879.42     -807628.65     -9584.1085      0.36117526     0.056706295    28.550436      3436.3814    
      1850   3.7            321.45965      131652.62     -807631.65     -9492.7316      0.36114886     0.05616975     28.514366      3436.0642    
      1860   3.72           318.15693      131396.16     -807631.89     -9470.0656      0.36112232     0.05603975     28.520443      3435.7428    
      1870   3.74           325.28929      132755.7      -807631.16     -9529.2953      0.36109564     0.056394413    28.514848      3435.4246    
      1880   3.76           332.15542      135979.57     -807628.38     -9651.3802      0.36106881     0.057121156    28.536012      3435.0926    
      1890   3.78           322.63499      137381.61     -807624.38     -9739.1962      0.36104184     0.057645195    28.53098       3434.7635    
      1900   3.8            330.89312      137588.81     -807625.81     -9733.0689      0.36101474     0.057613255    28.532134      3434.4335    
      1910   3.82           322.24659      136886.17     -807625.76     -9700.6716      0.36098748     0.057425819    28.509863      3434.1173    
      1920   3.84           328.28587      134392.19     -807627.81     -9666.2551      0.36096009     0.057226424    28.500375      3433.8068    
      1930   3.86           309.06498      132764.82     -807628.59     -9560.2955      0.36093255     0.056603437    28.50379       3433.4936    
      1940   3.88           328.30059      131149.37     -807634.06     -9473.8691      0.36090487     0.056096036    28.489039      3433.1893    
      1950   3.9            319.55715      131093.22     -807633.17     -9467.4709      0.36087705     0.056062473    28.514519      3432.8687    
      1960   3.92           314.4413       133179.32     -807628.81     -9589.1374      0.36084909     0.056787333    28.547118      3432.5278    
      1970   3.94           328.99213      134991.35     -807629.22     -9645.6821      0.36082098     0.057126643    28.59314       3432.1588    
      1980   3.96           318.01737      136778.34     -807626.51     -9685.3752      0.36079273     0.057366217    28.614946      3431.7767    
      1990   3.98           312.61618      137252.69     -807624.86     -9716.149       0.36076434     0.057553018    28.595916      3431.4064    
      2000   4              321.29534      136852.86     -807625.55     -9735.2783      0.36073581     0.057670891    28.513866      3431.0857    
      2010   4.02           317.58215      134645.83     -807628.36     -300.89308      0.36070713     0.057043345    28.563713      3430.7348    
      2020   4.04           324.81764      132210.39     -807633.01     -297.24011      0.36067831     0.056355316    28.592632      3430.3667    
      2030   4.06           318.29032      130785.99     -807633.78     -295.54128      0.36064935     0.056037727    28.598286      3429.9955    
      2040   4.08           316.5008       131324.97     -807631.62     -297.47096      0.36062025     0.056408166    28.592027      3429.6281    
      2050   4.1            316.96832      132558.93     -807629.65     -299.52824      0.36059101     0.056802886    28.641122      3429.2323    
      2060   4.12           324.62599      134999.48     -807629.58     -300.6369       0.36056162     0.057017779    28.612196      3428.8538    
      2070   4.14           326.66091      135625.36     -807627.81     -302.70956      0.36053209     0.057415576    28.595122      3428.4853    
      2080   4.16           306.45143      138893.56     -807622.19     -305.45611      0.36050242     0.057941288    28.57962       3428.126     
      2090   4.18           320.21293      136480.79     -807626.85     -302.74014      0.36047261     0.057430852    28.603708      3427.753     
      2100   4.2            325.1521       133938.33     -807630.93     -299.19058      0.36044265     0.056762205    28.602268      3427.381     
      2110   4.22           322.75107      130852.1      -807633.16     -296.62059      0.36041256     0.056279327    28.661894      3426.9754    
      2120   4.24           307.63198      130873.54     -807630.69     -296.99238      0.36038232     0.056354597    28.639397      3426.5831    
      2130   4.26           318.19112      130581.06     -807632.88     -296.25817      0.36035193     0.05622002     28.676825      3426.1703    
      2140   4.28           314.84429      132595.27     -807631.05     -297.57451      0.36032141     0.056474601    28.684592      3425.7537    
      2150   4.3            323.69796      135339.92     -807627.77     -302.03981      0.36029075     0.057326919    28.693675      3425.3327    
      2160   4.32           316.23643      136715.64     -807625.04     -303.75508      0.36025994     0.057657405    28.606634      3424.9605    
      2170   4.34           325.00162      136452.43     -807626.51     -303.42307      0.36022899     0.057599334    28.626102      3424.5777    
      2180   4.36           324.23398      135373.37     -807628.68     -301.08674      0.36019789     0.057160757    28.597846      3424.2107    
      2190   4.38           324.78968      133199.71     -807630.51     -299.29502      0.36016666     0.056825531    28.570797      3423.8587    
      2200   4.4            312.29733      131157.64     -807631.45     -296.55871      0.36013528     0.056310907    28.548933      3423.5186    
      2210   4.42           310.08382      131407.33     -807632.6      -295.02577      0.36010377     0.056024734    28.585942      3423.1583    
      2220   4.44           321.40261      130640.25     -807633.35     -295.86188      0.36007211     0.05618845     28.539726      3422.8231    
      2230   4.46           307.50002      134874        -807627.54     -299.66339      0.3600403      0.056915438    28.556415      3422.4787    
      2240   4.48           325.54753      134463.03     -807628.1      -301.57852      0.36000836     0.057284265    28.576756      3422.1235    
      2250   4.5            319.84449      136270.7      -807625.63     -303.12517      0.35997627     0.05758318     28.571105      3421.7713    
      2260   4.52           324.3222       136790.19     -807627.19     -302.12564      0.35994404     0.057398443    28.560146      3421.4249    
      2270   4.54           322.26708      135912.73     -807626.68     -302.25558      0.35991167     0.057428293    28.61175       3421.0513    
      2280   4.56           314.40606      132747.31     -807629.04     -298.77912      0.35987916     0.056772898    28.599617      3420.6843    
      2290   4.58           320.96145      132049.45     -807632.98     -295.63142      0.35984651     0.05617988     28.590485      3420.3222    
      2300   4.6            316.64689      130050.16     -807633.45     -294.53953      0.35981371     0.055977487    28.592529      3419.9591    
      2310   4.62           326.7197       131600.65     -807632.47     -296.86229      0.35978077     0.056424095    28.602679      3419.5909    
      2320   4.64           321.51889      133800.22     -807629.13     -299.37654      0.35974769     0.056907206    28.643351      3419.2019    
      2330   4.66           324.47996      135190.77     -807627.91     -300.91023      0.35971447     0.05720402     28.64613       3418.8119    
      2340   4.68           333.46033      136912.61     -807627.55     -302.41541      0.35968111     0.057495494    28.661136      3418.4146    
      2350   4.7            315.41234      137910.28     -807624.48     -302.96355      0.3596476      0.057605073    28.668505      3418.014     
      2360   4.72           316.84419      135558.36     -807625.85     -301.70429      0.35961396     0.057371006    28.322564      3417.7901    
      2370   4.74           317.993        133097.68     -807630.25     -297.38373      0.35958017     0.056554738    28.493972      3417.4776    
      2380   4.76           317.49549      131756.04     -807632.32     -295.08233      0.35954624     0.056122367    28.558955      3417.132     
      2390   4.78           309.38588      131284.5      -807629.8      -296.40034      0.35951216     0.056378384    28.648761      3416.7416    
      2400   4.8            331.1982       131620.49     -807632.43     -296.73946      0.35947795     0.05644826     28.644629      3416.3535    
      2410   4.82           327.50667      133989.85     -807630.15     -298.37134      0.35944359     0.056764116    28.602879      3415.9864    
      2420   4.84           331.33227      134844.26     -807628.91     -300.10179      0.35940909     0.057098808    28.606336      3415.6178    
      2430   4.86           324.26785      137433.71     -807624.63     -303.26459      0.35937446     0.05770614     28.62933       3415.238     
      2440   4.88           310.02943      136451.23     -807624.03     -301.87201      0.35933967     0.057446715    28.614494      3414.8658    
      2450   4.9            334.03088      134571.31     -807630.19     -298.89819      0.35930475     0.056886321    28.556449      3414.5219    
      2460   4.92           310.25899      132658.96     -807629.22     -296.52591      0.35926969     0.056440336    28.535892      3414.1881    
      2470   4.94           328.50485      132380        -807631.32     -296.78679      0.35923448     0.056495527    28.56516       3413.8399    
      2480   4.96           319.00188      131852.03     -807630.71     -296.10562      0.35919913     0.056371408    28.546742      3413.5006    
      2490   4.98           324.13298      133592.73     -807631.02     -296.3826       0.35916364     0.056429716    28.551438      3413.159     
      2500   5              326.39241      133244.78     -807629.92     -297.7785       0.35912801     0.056701113    28.554228      3412.816     
[...]
     98740   197.48         306.03834      134972.68     -807627.2      -9707.0277      0.36236891     0.057244383    28.968733      43.836049    
     98750   197.5          317.50739      132355.47     -807630.2      -9663.3081      0.36238762     0.056983618    28.971482      43.488109    
     98760   197.52         321.16416      133552.77     -807631.81     -9624.4703      0.36240618     0.056751688    28.904498      43.14018     
     98770   197.54         299.27547      133700.75     -807628.79     -9622.0431      0.36242459     0.056734493    28.891766      42.792253    
     98780   197.56         317.74177      135496.72     -807627.74     -9735.7817      0.36244287     0.057402236    28.935656      42.44432     
     98790   197.58         313.31468      134780.68     -807626.71     -9750.5082      0.362461       0.057486188    28.951482      42.096385    
     98800   197.6          317.75088      135948.5      -807628.68     -9699.8713      0.36247899     0.057184809    28.95732       41.74845     
     98810   197.62         329.15777      133405.63     -807631.91     -9646.8239      0.36249683     0.056869273    28.937907      41.400518    
     98820   197.64         314.95045      134807.74     -807627.47     -9722.62        0.36251453     0.057313302    28.9648        41.052583    
     98830   197.66         324.33192      133729.52     -807630.23     -9672.9714      0.36253209     0.057017869    29.002696      40.704643    
     98840   197.68         320.11184      133036.09     -807632.38     -9579.2143      0.36254951     0.0564625      28.995436      40.356704    
     98850   197.7          319.49873      133602.46     -807631.68     -9594.02        0.36256678     0.056547075    28.968193      40.00877     
     98860   197.72         318.16805      134353.27     -807627.88     -9707.4011      0.36258391     0.05721264     29.000323      39.660833    
     98870   197.74         322.9852       135622.79     -807626.85     -9755.6343      0.3626009      0.057494218    29.012592      39.312894    
     98880   197.76         314.60188      135217.28     -807628.29     -9662.8925      0.36261774     0.056945005    29.009794      38.964956    
     98890   197.78         322.14234      135731.82     -807627.35     -9719.3345      0.36263445     0.057274989    28.982776      38.617022    
     98900   197.8          317.98767      134971        -807625.94     -9738.0926      0.362651       0.057382908    29.011546      38.269085    
     98910   197.82         332.79347      135185.13     -807628.13     -9718.0703      0.36266742     0.057262332    29.028691      37.921147    
     98920   197.84         329.19725      132664.34     -807631.98     -9567.2613      0.36268369     0.056371183    28.974577      37.573216    
     98930   197.86         328.82676      134256.41     -807629.13     -9641.6483      0.36269982     0.056806951    28.971476      37.225287    
     98940   197.88         324.10231      134249.17     -807627.29     -9671.6465      0.36271581     0.056981184    28.912699      36.877365    
     98950   197.9          330.32728      136039.26     -807626.33     -9715.3173      0.36273165     0.057235974    28.941434      36.52944     
     98960   197.92         327.65474      134548.09     -807628.1      -9637.8379      0.36274735     0.056777061    29.035614      36.181504    
     98970   197.94         339.72092      136876.33     -807626.3      -9741.7298      0.36276291     0.057386633    29.026308      35.83357     
     98980   197.96         326.84865      136600.59     -807623.49     -9769.2709      0.36277832     0.057546427    29.025867      35.485636    
     98990   197.98         328.43789      136976.9      -807625.06     -9722.0707      0.36279359     0.057265981    29.069032      35.137698    
     99000   198            342.71257      133902.84     -807629.87     -9628.577       0.36280872     0.05671291     29.041586      34.789764    
     99010   198.02         325.87122      134113.26     -807627.41     -300.98776      0.3628237      0.056728421    29.057859      34.441829    
     99020   198.04         332.68011      134429.75     -807627.64     -301.8003       0.36283855     0.056879238    29.047112      34.093896    
     99030   198.06         328.52828      134673.14     -807627.63     -301.29674      0.36285324     0.056782033    29.077167      33.74596     
     99040   198.08         337.31963      135221.11     -807628.99     -301.21852      0.3628678      0.056765015    29.077521      33.398025    
     99050   198.1          332.16466      135459.57     -807626.5      -303.1599       0.36288221     0.057128602    29.085779      33.050089    
     99060   198.12         337.44887      136761.19     -807624.95     -305.56296      0.36289648     0.057579179    29.076765      32.702156    
     99070   198.14         332.58407      135075.02     -807626.92     -303.10663      0.36291061     0.057114095    29.04115       32.354227    
     99080   198.16         332.05705      136241.33     -807627.43     -302.60678      0.36292459     0.057017711    29.005193      32.006303    
     99090   198.18         331.57867      133248.22     -807628.81     -301.46623      0.36293843     0.056800639    28.951646      31.658386    
     99100   198.2          322.07779      134811.85     -807625.97     -303.06628      0.36295213     0.057099958    28.984466      31.310465    
     99110   198.22         334.25878      132676.75     -807630.75     -300.2379       0.36296568     0.056564958    29.030616      30.96254     
     99120   198.24         324.47141      135889.48     -807627.49     -302.23672      0.36297909     0.056939433    29.042799      30.614615    
     99130   198.26         332.50222      134637.66     -807628.21     -302.97069      0.36299236     0.057075621    29.059946      30.266688    
     99140   198.28         332.98699      137803.77     -807624.83     -306.53609      0.36300548     0.057745208    29.079062      29.918761    
     99150   198.3          331.08362      135225.66     -807627.85     -303.54467      0.36301846     0.057179641    29.079547      29.570834    
     99160   198.32         322.66381      137236.32     -807626.7      -303.66702      0.3630313      0.057200664    29.098606      29.222906    
     99170   198.34         326.69561      133465.52     -807628.98     -302.29074      0.36304399     0.056939429    29.097234      28.874979    
     99180   198.36         311.22896      135026.19     -807626.31     -303.00448      0.36305655     0.057071896    29.097547      28.527053    
     99190   198.38         321.21148      132428.24     -807630.87     -300.09807      0.36306895     0.056522532    29.102089      28.179127    
     99200   198.4          324.83253      134719.18     -807629.96     -301.64156      0.36308122     0.056811325    29.041562      27.831208    
     99210   198.42         327.28483      134198.81     -807629.31     -302.93055      0.36309334     0.057052188    29.028532      27.48329     
     99220   198.44         322.81584      136720.06     -807626.1      -305.63202      0.36310532     0.057559069    29.108207      27.135367    
     99230   198.46         332.83094      134805.68     -807629.2      -304.12603      0.36311715     0.057273582    29.112847      26.787443    
     99240   198.48         318.78554      136238.91     -807627.07     -304.4513       0.36312885     0.057332992    29.131434      26.439519    
     99250   198.5          326.42991      134648.74     -807628.61     -304.17931      0.3631404      0.05727995     29.182038      26.091591    
     99260   198.52         318.55212      133862.36     -807628.54     -303.31908      0.3631518      0.057116167    29.094538      25.743672    
     99270   198.54         314.69655      133800.74     -807629.03     -302.42925      0.36316306     0.056946841    29.036792      25.395759    
     99280   198.56         320.77589      132916.33     -807631.96     -300.50353      0.36317418     0.0565825      29.057045      25.047845    
     99290   198.58         320.64323      135006.57     -807628.74     -303.75587      0.36318516     0.057193162    29.057865      24.699931    
     99300   198.6          323.84028      133785.92     -807629.02     -304.10259      0.36319599     0.057256736    29.032346      24.352021    
     99310   198.62         327.12403      136017.41     -807629.05     -304.51958      0.36320668     0.05733356     29.000904      24.004113    
     99320   198.64         322.28398      134314.01     -807630.35     -302.70237      0.36321723     0.05698977     29.148354      23.656195    
     99330   198.66         318.14811      136676.61     -807627.22     -305.34046      0.36322763     0.057484796    29.123654      23.308279    
     99340   198.68         313.29745      132776.67     -807628.6      -303.47874      0.36323789     0.057132687    29.095306      22.960366    
     99350   198.7          309.16082      135006.54     -807628.19     -303.29675      0.36324801     0.057096835    29.069953      22.612456    
     99360   198.72         308.93914      132161.28     -807631.44     -300.1404       0.36325798     0.056501087    29.014027      22.264552    
     99370   198.74         311.0082       135231.79     -807627.77     -304.05404      0.36326781     0.057236278    28.989777      21.91665     
     99380   198.76         324.68188      132450.58     -807630.96     -302.86664      0.3632775      0.057011237    28.986197      21.568748    
     99390   198.78         324.01678      135526.71     -807629.29     -304.36423      0.36328704     0.057291637    28.99913       21.220846    
     99400   198.8          310.53853      134013.9      -807628.9      -302.95562      0.36329644     0.057025012    29.07317       20.87294     
     99410   198.82         321.66201      135856.18     -807627.57     -305.76712      0.3633057      0.057552752    29.062872      20.525035    
     99420   198.84         316.56883      133966.34     -807628.05     -304.65851      0.36331481     0.057342646    29.073843      20.17713     
     99430   198.86         310.73178      135817.27     -807628.1      -303.69226      0.36332378     0.057159367    29.041686      19.829228    
     99440   198.88         315.9579       133612.52     -807630.12     -302.42638      0.36333261     0.056919727    29.024037      19.481328    
     99450   198.9          317.93093      134076.95     -807630.56     -302.1715       0.36334129     0.056870397    29.01592       19.13343     
     99460   198.92         329.73859      133610.98     -807631.5      -302.79539      0.36334983     0.056986477    29.02256       18.785531    
     99470   198.94         315.3055       134052.38     -807629.31     -302.86251      0.36335823     0.056997793    29.053672      18.437631    
     99480   198.96         321.94637      134861.1      -807630.33     -302.6878       0.36336648     0.056963618    29.086346      18.08973     
     99490   198.98         317.40916      134573.82     -807628.7      -303.52058      0.3633746      0.057119067    29.1166        17.741828    
     99500   199            324.76984      135905.08     -807627.74     -305.2693       0.36338256     0.057446896    29.168798      17.393924    
     99510   199.02         324.55837      134233.22     -807629.65     -9701.3978      0.36339039     0.057050364    29.052399      17.046027    
     99520   199.04         322.03721      135172.44     -807628.58     -9712.3075      0.36339807     0.057113312    28.979204      16.698135    
     99530   199.06         312.61565      133649.79     -807628.62     -9660.9674      0.3634056      0.056810228    28.925198      16.350247    
     99540   199.08         327.58436      135314.1      -807627.94     -9736.3834      0.363413       0.057252538    28.987993      16.002356    
     99550   199.1          315.98573      132648.8      -807628.53     -9657.8644      0.36342025     0.056789693    29.032099      15.654463    
     99560   199.12         328.20739      135114.13     -807628.97     -9685.4343      0.36342736     0.056950694    29.005986      15.306573    
     99570   199.14         329.20041      133822.18     -807628.56     -9693.9622      0.36343432     0.056999746    29.002937      14.958683    
     99580   199.16         338.82651      136886.73     -807626.51     -9792.7699      0.36344114     0.057579647    28.992154      14.610794    
     99590   199.18         333.0097       134386.94     -807628.11     -9708.859       0.36344782     0.057085218    29.049399      14.262903    
     99600   199.2          328.86145      136362.11     -807627.77     -9694.3677      0.36345435     0.056998989    29.005222      13.915015    
     99610   199.22         320.63593      134312.15     -807626.8      -9686.9602      0.36346074     0.056954434    28.916395      13.567131    
     99620   199.24         324.35291      135491.63     -807625.61     -9735.775       0.36346699     0.057240457    28.888169      13.21925     
     99630   199.26         325.30651      133801.27     -807628.43     -9649.9065      0.3634731      0.056734649    28.963072      12.871365    
     99640   199.28         328.00348      135441.09     -807628.27     -9662.7813      0.36347906     0.056809412    29.012134      12.523479    
     99650   199.3          337.25228      134624.45     -807628.02     -9714.8022      0.36348487     0.05711434     28.982706      12.175594    
     99660   199.32         329.43866      135852.95     -807625.22     -9769.7547      0.36349055     0.057436514    29.035061      11.827708    
     99670   199.34         331.35636      135080.61     -807627.17     -9717.328       0.36349608     0.057127428    29.048998      11.479823    
     99680   199.36         332.10259      135364.12     -807628.27     -9690.217       0.36350147     0.056967201    29.054834      11.131937    
     99690   199.38         325.71901      135566.93     -807626.05     -9735.5796      0.36350671     0.057233054    29.06892       10.784052    
     99700   199.4          334.54676      135165.19     -807628.23     -9709.7668      0.36351181     0.057080506    28.997421      10.436171    
     99710   199.42         334.36389      134405.64     -807629.55     -9669.9887      0.36351677     0.056845889    28.96936       10.08829     
     99720   199.44         330.60743      133566.17     -807629.53     -9661.0323      0.36352158     0.056792486    28.979914      9.7404104    
     99730   199.46         328.42043      134795.3      -807627.13     -9734.5621      0.36352625     0.057223996    29.006051      9.3925302    
     99740   199.48         324.43954      135060.2      -807627.58     -9710.4629      0.36353078     0.057081619    28.992507      9.044651     
     99750   199.5          321.76215      135964.67     -807627.34     -9711.4078      0.36353516     0.057086485    28.955007      8.6967735    
     99760   199.52         320.6374       134987.45     -807627.34     -9711.7102      0.3635394      0.057087597    28.968551      8.3488962    
     99770   199.54         323.22043      135618.51     -807627.4      -9729.6402      0.3635435      0.057192349    28.961484      8.0010195    
     99780   199.56         325.61123      134205.65     -807628.14     -9721.0066      0.36354745     0.057140978    28.982729      7.6531429    
     99790   199.58         324.905        133856.32     -807629.22     -9688.9186      0.36355126     0.056951765    28.950733      7.3052676    
     99800   199.6          329.21655      133257.04     -807630.58     -9672.6341      0.36355493     0.056855471    28.980905      6.957392     
     99810   199.62         322.50274      134392.74     -807628.19     -9723.7965      0.36355845     0.057155648    29.021648      6.6095162    
     99820   199.64         316.45384      134434.27     -807627.82     -9716.3688      0.36356183     0.057111458    29.037663      6.2616406    
     99830   199.66         312.54153      135666.49     -807626.61     -9739.6233      0.36356507     0.057247635    29.011123      5.9137663    
     99840   199.68         325.10381      133886.4      -807629.61     -9704.4875      0.36356816     0.057040628    29.036491      5.5658921    
     99850   199.7          317.12593      135266.55     -807626.23     -9778.4084      0.36357111     0.05747465     29.058395      5.2180182    
     99860   199.72         326.57128      134126.49     -807629.04     -9733.7063      0.36357392     0.057211463    29.073282      4.8701449    
     99870   199.74         316.13619      134941.11     -807630        -9658.7414      0.36357658     0.056770428    29.017708      4.5222732    
     99880   199.76         326.74799      133495.38     -807630.75     -9683.7082      0.3635791      0.05691678     29.004846      4.1744023    
     99890   199.78         316.01432      134284.93     -807628.34     -9716.2523      0.36358148     0.057107687    29.000046      3.8265321    
     99900   199.8          315.01403      134229.46     -807629.01     -9692.6483      0.36358371     0.056968604    28.97514       3.4786628    
     99910   199.82         318.12468      134766.04     -807629.43     -9691.9234      0.3635858      0.056964015    28.974859      3.130794     
     99920   199.84         317.12964      134474.51     -807628.59     -9717.5218      0.36358775     0.057114164    28.984331      2.7829257    
     99930   199.86         315.01541      135736.65     -807626.24     -9782.0266      0.36358955     0.057493002    29.027649      2.4350577    
     99940   199.88         322.72922      134226.02     -807629.28     -9720.566       0.36359121     0.057131512    28.987217      2.0871905    
     99950   199.9          318.66929      134463.67     -807629.47     -9695.6988      0.36359273     0.05698512     28.928201      1.7393244    
     99960   199.92         311.85881      133278.78     -807628.95     -9682.4302      0.3635941      0.056906921    28.90354       1.3914587    
     99970   199.94         326.30391      133995.4      -807629.28     -9736.043       0.36359533     0.057221828    28.900063      1.0435935    
     99980   199.96         320.05692      133705.29     -807629.58     -9699.0969      0.36359641     0.057004514    28.931802      0.69572855   
     99990   199.98         318.71223      134441.7      -807629.86     -9681.6897      0.36359736     0.056902059    28.936801      0.34786405   
    100000   200            319.27913      133827.25     -807629        -9713.6305      0.36359816     0.057089659    28.934696      0            
Loop time of 3478.64 on 32 procs for 100000 steps with 1080 atoms

Performance: 4.967 ns/day, 4.831 hours/ns, 28.747 timesteps/s, 31.047 katom-step/s
62.3% CPU use with 32 MPI tasks x 1 OpenMP threads

MPI task timing breakdown:
Section |  min time  |  avg time  |  max time  |%varavg| %total
---------------------------------------------------------------
Pair    | 2585.2     | 2803       | 3087.7     | 247.1 | 80.58
Neigh   | 0.001655   | 0.001761   | 0.0019664  |   0.2 |  0.00
Comm    | 311.22     | 596.44     | 815        | 535.7 | 17.15
Output  | 2.4631     | 2.5288     | 2.537      |   0.8 |  0.07
Modify  | 65.125     | 66.138     | 72.021     |  14.8 |  1.90
Other   |            | 10.51      |            |       |  0.30

Nlocal:          33.75 ave          41 max          26 min
Histogram: 3 1 3 4 2 5 4 5 3 2
Nghost:        1037.66 ave        1051 max        1021 min
Histogram: 1 1 1 4 3 5 10 5 0 2
Neighs:              0 ave           0 max           0 min
Histogram: 32 0 0 0 0 0 0 0 0 0
FullNghs:      5312.25 ave        6469 max        4046 min
Histogram: 3 1 3 6 0 6 3 5 3 2

Total # of neighbors = 169992
Ave neighs/atom = 157.4
Neighbor list builds = 4
Dangerous builds = 0

Total wall time: 1:01:40
