
units		metal
atom_style	atomic

read_data ${STRUCTURE}.data
read_data BaTiO3-sc333.data
Reading data file ...
  orthogonal box = (0 0 0) to (11.898253 11.898253 12.912076)
  2 by 4 by 4 MPI processor grid
  reading atoms ...
  135 atoms
  read_data CPU = 0.005 seconds
replicate $L $L $L
replicate 2 $L $L
replicate 2 2 $L
replicate 2 2 2
Replication is creating a 2x2x2 = 8 times larger system...
  orthogonal box = (0 0 0) to (23.796507 23.796507 25.824152)
  2 by 4 by 4 MPI processor grid
  1080 atoms
  replicate CPU = 0.003 seconds

pair_style allegro
pair_coeff	* * ${MODEL}.pth Ba Ti O
pair_coeff	* * BaTiO3-E0.pth Ba Ti O
mass 1 137.3
mass 2 47.9
mass 3 15.9994

timestep 0.002
compute polarization all allegro polarization 3
compute allegro will evaluate the quantity polarization of length 3 (src/compute_allegro.cpp:53)
compute polarizability all allegro polarizability 9
compute allegro will evaluate the quantity polarizability of length 9 (src/compute_allegro.cpp:53)

thermo_style custom pe fmax fnorm spcpu cpuremain

variable efield equal 1e-2*36.36
fix born all addbornforce 0.0 0.0 ${efield}
fix born all addbornforce 0.0 0.0 0.3636

thermo 10
min_style fire
#minimize 0.0 1e-6 100 100
velocity all create ${TEMP} ${SEED} dist gaussian rot yes mom yes
velocity all create 300 ${SEED} dist gaussian rot yes mom yes
velocity all create 300 21934 dist gaussian rot yes mom yes
fix nvt all nvt temp ${TEMP} ${TEMP} $(100*dt)
fix nvt all nvt temp 300 ${TEMP} $(100*dt)
fix nvt all nvt temp 300 300 $(100*dt)
fix nvt all nvt temp 300 300 0.2000000000000000111
run 5000
Neighbor list info ...
  update: every = 1 steps, delay = 0 steps, check = yes
  max neighbors/atom: 2000, page size: 100000
  master list distance cutoff = 8
  ghost atom cutoff = 8
  binsize = 8, bins = 3 3 4
  1 neighbor lists, perpetual/occasional/extra = 1 0 0
  (1) pair allegro/kk, perpetual
      attributes: full, newton on, kokkos_device
      pair build: full/bin/kk/device
      stencil: full/bin/3d
      bin: kk/device
Per MPI rank memory allocation (min/avg/max) = 3.516 | 3.516 | 3.516 Mbytes
    PotEng          Fmax          Fnorm          S/CPU         CPULeft    
-807708.29      1.5953614      37.043689      0              0            
-807647.04      3.4792944      45.387751      2.3549139      2118.9744    
-807636.73      2.6028901      35.669363      25.910035      1153.4657    
-807607.88      3.6498652      37.807859      25.899902      831.39723    
-807604.16      4.4107656      50.314499      25.796841      670.36121    
-807566.41      3.9202073      41.114144      25.842936      573.51607    
-807602.85      2.8520606      38.945568      25.895817      508.75862    
-807644.96      3.7022359      34.810144      25.9006        462.38793    
-807686.23      2.6782854      33.714925      25.851157      427.55881    
-807667.71      3.9250807      34.242548      25.832637      400.39866    
-807655.32      3.643518       33.835841      25.920012      378.52918    
-807661.75      2.550186       26.801236      25.892418      360.5841     
-807631.43      3.6356812      30.093787      25.850751      345.59083    
-807587.34      3.7284247      38.984786      25.862607      332.83803    
-807570.58      3.9610013      37.496509      25.927977      321.81799    
-807632.41      3.136513       33.01523       25.901284      312.22872    
-807654.88      3.5123131      29.635498      25.881386      303.79884    
-807665.57      2.5780472      33.370525      25.879183      296.31616    
-807647.74      4.261283       44.192745      25.904953      289.61169    
-807681.79      2.8823959      35.926141      25.865102      283.58735    
-807642.16      4.0701237      39.214793      25.844098      278.13434    
-807618.31      3.2000453      38.377908      25.896604      273.14591    
-807563.19      4.4848231      45.723542      25.932123      268.56438    
-807607.63      4.7370854      49.163174      25.87171       264.36639    
-807612.89      4.378351       39.069455      25.856811      260.49044    
-807642.66      3.1922892      35.135844      25.929653      256.87298    
-807643.91      4.9493708      44.814214      25.903149      253.51131    
-807683.26      2.9667015      37.23012       25.872412      250.3781     
-807662.38      3.4224091      35.274366      25.824106      247.45327    
-807639.51      3.0142993      32.07015       25.913388      244.68178    
-807609.43      3.1894866      32.915329      25.896543      242.07325    
-807607.6       3.6659935      42.05644       25.887671      239.61011    
-807597.76      3.8549634      35.457283      25.822895      237.29094    
-807610.28      3.0741022      32.837671      25.914776      235.06943    
-807643.03      3.2382774      30.099282      25.918196      232.9552     
-807675.13      2.5211898      31.524845      25.907888      230.94177    
-807677.65      2.4650241      31.670537      25.795061      229.04052    
-807645.97      3.8674678      37.166949      25.885157      227.2042     
-807650.01      2.5586166      29.960926      25.898922      225.44169    
-807623.08      3.7199814      33.591158      25.88883       223.75155    
-807603.32      4.0304181      42.135049      25.88627       222.12705    
-807571.72      3.9877203      40.370476      25.891864      220.56201    
-807628.29      3.2368011      34.024984      25.924018      219.04788    
-807651.03      3.2829039      34.246096      25.886846      217.59212    
-807673.34      2.7622017      34.493817      25.858855      216.1893     
-807643.39      4.5729499      45.92677       25.873691      214.82941    
-807668.58      2.7785633      35.272583      25.878223      213.51116    
-807643.43      3.9334085      37.45623       25.887159      212.23128    
-807623.96      3.5424998      38.253583      25.918162      210.98429    
-807566.44      3.874592       44.205427      25.923371      209.77173    
-807605.51      3.7688494      43.527359      25.9101        208.59402    
-807623.93      3.5214955      35.356205      25.873051      207.45223    
-807656.33      2.5512421      32.160095      25.881858      206.33835    
-807644.1       4.2122208      41.029553      25.910465      205.24833    
-807674.25      3.0176225      33.895199      25.874622      204.1888     
-807665.87      2.7079902      32.036582      25.824417      203.15982    
-807643.27      2.6641492      29.646317      25.903757      202.14436    
-807602.38      2.9725249      33.939058      25.930972      201.14784    
-807600.32      3.4677618      37.54142       25.925718      200.17297    
-807607.97      3.3941719      37.304687      25.825912      199.22922    
-807623.77      3.7461679      30.347838      25.886799      198.29735    
-807640.37      2.9909614      31.20752       25.936284      197.37806    
-807665.99      3.4514442      32.60265       25.89673       196.48013    
-807676.61      2.9096002      33.995342      25.816189      195.60682    
-807646.67      4.1859021      37.284374      25.833824      194.7469     
-807636.14      3.0596255      32.322066      25.90919       193.89398    
-807613.91      4.2177669      35.299834      25.911291      193.05501    
-807607.11      4.517614       44.77119       25.856801      192.23481    
-807582.93      4.0124923      40.315975      25.835717      191.42938    
-807620.27      3.3992668      35.558256      25.916253      190.62855    
-807644.75      3.8157726      37.889989      25.903453      189.84076    
-807674.35      3.1678435      36.483892      25.825693      189.0713     
-807647.62      4.0779727      42.545297      25.877138      188.30788    
-807654.72      2.7268182      34.347117      25.901466      187.55267    
-807640.02      3.0648417      34.561783      25.877138      186.80953    
-807626.63      3.2569212      37.334293      25.880721      186.0756     
-807577.64      3.8965681      38.641536      25.898271      185.34935    
-807595.89      3.7318669      39.002223      25.913279      184.63071    
-807628.66      4.0481922      31.969656      25.857758      183.92508    
-807660.74      2.536302       31.437486      25.879467      183.22579    
-807650.46      3.4018849      36.173622      25.89104       182.53342    
-807660.57      2.7418354      33.795869      25.775385      181.85757    
-807664.63      2.8203974      30.887685      25.855829      181.1826     
-807644.6       2.9510151      30.540524      25.87892       180.51283    
-807604.11      3.0595645      34.247663      25.913828      179.84723    
-807589.19      3.0925778      37.573915      25.909973      179.1885     
-807610.07      3.4321372      37.702628      25.848408      178.54053    
-807631.42      2.9756051      30.916597      25.888381      177.89573    
-807642.03      3.0808963      32.559191      25.891489      177.25659    
-807655.16      3.6109866      35.294328      25.885849      176.62352    
-807673.71      2.6740273      34.406905      25.827645      175.9999     
-807651.4       3.794656       35.034409      25.836253      175.38089    
-807631.67      2.5425818      32.893961      25.871602      174.76459    
-807605.02      4.3419196      35.948705      25.907582      174.15087    
-807608.43      3.908574       42.527942      25.860088      173.54507    
-807596.5       4.1158541      37.382397      25.852949      172.94433    
-807622.55      2.8813563      33.65895       25.901953      172.34497    
-807641.4       3.546426       35.960053      25.902127      171.74999    
-807672.58      2.4171126      34.585285      25.852785      171.1623     
-807655.91      3.1650349      36.246732      25.814197      170.58101    
-807648.62      2.6635177      33.227572      25.854797      170.00117    
-807632.46      3.4115733      32.807598      25.862853      169.42468    
-807626.01      4.0074867      36.605183      25.872597      168.85133    
-807591.6       3.7481257      36.763432      25.879238      168.28124    
-807596.25      2.9511643      37.118774      25.923328      167.71217    
-807627.14      3.7494148      32.501276      25.894121      167.14823    
-807660.55      2.9600852      32.07985       25.880543      166.5884     
-807658.8       3.1731052      33.735579      25.834215      166.03435    
-807652.96      3.182299       34.456489      25.831135      165.48357    
-807656.04      3.4857728      31.65823       25.845804      164.935      
-807643.41      2.833049       30.259007      25.867306      164.38823    
-807610.57      3.1218594      34.209378      25.893732      163.84296    
-807585.69      3.1208936      37.158948      25.932634      163.29853    
-807611.66      3.3082609      35.368991      25.903589      162.75838    
-807637.19      3.4360227      32.497789      25.769145      162.22776    
-807650.88      2.8959504      32.662278      25.734205      161.70139    
-807647.78      4.4848759      38.174294      25.893821      161.16946    
-807667.22      3.0927529      34.277659      25.807678      160.64424    
-807652.08      4.024516       35.069379      25.791342      160.12215    
-807632.93      3.0148894      33.409298      25.8022        159.60179    
-807594.2       3.4336146      36.966153      25.877872      159.08007    
-807608.23      3.4883849      39.56122       25.886565      158.56017    
-807609.01      3.1726514      35.401094      25.824039      158.04535    
-807632.21      2.4564582      32.220972      25.843159      157.53174    
-807637.68      3.7907346      36.573019      25.86596       157.01913    
-807668.37      2.5753581      33.947785      25.825157      156.51037    
-807659.99      2.936208       34.576261      25.815225      156.00399    
-807646.2       4.3359577      33.970918      25.859481      155.49753    
-807622.94      3.4414534      34.260756      25.932677      154.98977    
-807620.45      3.6906115      36.306347      25.868129      154.48667    
-807600.38      4.0899189      37.061643      25.866031      153.98545    
-807604.21      3.3200806      35.674548      25.816301      153.48808    
-807625.82      3.40419        31.95566       25.859458      152.99057    
-807658.31      2.3259251      30.628013      25.861812      152.49464    
-807663.74      3.1296364      32.27289       25.826261      152.00178    
-807650.47      3.4921046      34.289826      25.897699      151.50761    
-807647.27      3.4683041      32.751638      25.885255      151.01552    
-807636.86      3.9051328      32.014096      25.879785      150.52519    
-807614.68      3.1719781      36.137411      25.88365       150.03622    
-807588.53      5.2790001      38.970126      25.917482      149.54741    
-807609.16      3.0771875      36.343033      25.884525      149.06134    
-807637.75      4.1167718      33.070496      25.797658      148.57999    
-807656.47      2.7327904      32.442799      25.832375      148.09866    
-807647.43      4.172384       37.424757      25.825879      147.61888    
-807658.82      2.5565658      33.348886      25.882545      147.13829    
-807649.62      2.9236255      33.322502      25.840188      146.66055    
-807634.08      2.7352346      32.550596      25.848748      146.18375    
-807596.3       3.3983504      36.079954      25.847498      145.70821    
-807601.03      3.5441082      38.806029      25.877241      145.23281    
-807616.33      2.9628699      34.959348      25.822824      144.76053    
-807638.29      2.6756976      33.534422      25.842697      144.28868    
-807640.19      3.799685       36.348821      25.87479       143.81685    
-807660.89      3.6427728      34.557465      25.869671      143.34632    
-807656.78      3.4194997      35.553591      25.857996      142.87728    
-807647.4       3.5744101      32.714564      25.86397       142.40911    
-807616.95      3.9270352      34.934002      25.917721      141.94021    
-807609.78      2.9038765      35.700273      25.921203      141.47226    
-807605.71      3.4347064      37.778543      25.83512       141.00816    
-807616.05      2.9136163      35.095519      25.847152      140.54465    
-807628.51      3.7764265      33.767627      25.88649       140.08084    
-807651.46      3.4499032      33.875147      25.842763      139.61939    
-807662.61      2.8139896      34.281376      25.818391      139.15963    
-807650.74      3.9664398      35.154242      25.798713      138.70138    
-807638.4       3.4350651      33.324814      25.861546      138.24206    
-807625.92      3.6402549      33.351694      25.880861      137.78302    
-807615.28      3.8446154      37.267164      25.848128      137.32587    
-807599.44      4.2361676      36.963397      25.862186      136.86913    
-807612.29      3.4888295      35.227996      25.885301      136.41255    
-807637.97      3.3800749      32.639058      25.888063      135.95672    
-807658.29      2.5351334      32.996847      25.810344      135.50399    
-807650.74      3.3236685      34.909577      25.870812      135.05027    
-807648.86      2.7373636      33.441044      25.851329      134.5979     
-807643.01      3.1706629      32.806069      25.874514      134.14563    
-807631.85      2.7930255      33.86857       25.894622      133.69356    
-807601.47      3.1611984      36.740525      25.914724      133.24168    
-807601.93      3.288648       37.574407      25.898603      132.791      
-807621.94      4.171917       35.749881      25.833204      132.34285    
-807647         3.3668221      32.650322      25.807688      131.89609    
-807645.29      5.6289109      36.060451      25.865629      131.44843    
-807652.74      3.2112132      34.492566      25.882854      131.00099    
-807654.53      4.5579382      33.588459      25.852664      130.55503    
-807644.92      3.0341423      31.928381      25.879528      130.10901    
-807617.46      3.6482687      34.163339      25.91561       129.66271    
-807604.6       2.7713558      35.994212      25.890375      129.21772    
-807611.01      2.9826362      36.637373      25.862816      128.77408    
-807628.8       3.4353124      33.350164      25.841251      128.3316     
-807635.85      3.0132698      33.465005      25.868227      127.88904    
-807649.03      3.8537668      34.005361      25.859262      127.4473     
-807660.8       2.816769       32.944789      25.853481      127.00629    
-807650.02      3.403958       33.242365      25.856936      126.56577    
-807634.6       3.3315272      32.225796      25.858636      126.12577    
-807616.62      3.6574145      33.996981      25.917918      125.6849     
-807613.57      3.498849       36.491954      25.877891      125.24556    
-807608.91      3.8246395      35.764652      25.81181       124.80835    
-807621.81      3.0004744      34.057062      25.807385      124.37175    
-807636.73      4.253733       33.931882      25.831666      123.93508    
-807657.24      2.7966812      33.590443      25.836677      123.49881    
-807652.82      4.3668719      34.427162      25.846243      123.06281    
-807643.59      3.5103414      33.903982      25.899016      122.62611    
-807632.09      3.9267         34.072932      25.89977       122.18989    
-807624.89      3.4417184      35.126207      25.911473      121.75392    
-807606.23      3.4818353      35.835795      25.868461      121.3194     
-807605.25      4.9390661      36.675334      25.880665      120.88509    
-807624.85      3.6445346      33.555576      25.894266      120.45095    
-807646.01      4.8955218      33.695252      25.877292      120.01765    
-807650.73      3.4045191      34.087306      25.836826      119.58568    
-807646.47      5.943712       35.957717      25.852935      119.1538     
-807645.6       3.6518883      33.696026      25.836435      118.7227     
-807637.64      4.4063299      34.772986      25.84322       118.29189    
-807616.78      3.4181537      35.602586      25.892417      117.86047    
-807599.88      3.3297176      37.643879      25.883509      117.42966    
-807612.68      3.1656268      36.770462      25.837521      117.00022    
-807632.47      3.2090172      34.510195      25.809786      116.57175    
-807641.42      3.2599945      34.986694      25.846098      116.14292    
-807645.2       3.4965539      35.413893      25.849761      115.71442    
-807652.8       2.8620004      33.958672      25.825255      115.28678    
-807649.4       3.3550252      32.895891      25.848856      114.85906    
-807630.17      3.0880718      33.11843       25.885114      114.43101    
-807610.91      3.4433486      34.637512      25.901939      114.00301    
-807610.28      3.9335192      36.496619      25.889331      113.57564    
-807617.09      3.1966974      34.99421       25.838458      113.14962    
-807630.43      2.4234011      32.921631      25.856773      112.72359    
-807638.39      3.4390938      33.927442      25.882737      112.29744    
-807654.72      3.1014895      33.067299      25.853336      111.87219    
-807653.86      3.6721526      34.043602      25.85448       111.44726    
-807641.3       3.0401867      33.169674      25.864881      111.02248    
-807625.59      4.0191385      33.76243       25.910254      110.59722    
-807617.78      3.2900258      35.529622      25.923971      110.17206    
-807611.92      3.5823418      35.556849      25.837735      109.74878    
-807614.5       2.8521503      34.38661       25.872663      109.32519    
-807629.27      4.3509689      33.078416      25.92292       108.90105    
-807647.61      3.2596626      33.45143       25.874426      108.47809    
-807654.19      2.8550237      34.223608      25.822987      108.05633    
-807645.13      3.2436534      34.717316      25.873434      107.634      
-807639.19      3.9276914      33.435079      25.911187      107.21133    
-807630.52      3.5807122      33.711329      25.900969      106.78915    
-807618.64      3.4025759      35.396147      25.891579      106.36744    
-807606.42      3.5680481      35.983277      25.906288      105.94577    
-807618.12      2.9972857      33.827015      25.893597      105.52462    
-807635.83      3.5271429      33.139178      25.827705      105.10484    
-807649.88      2.7065276      32.191901      25.804399      104.6857     
-807645.73      4.2830225      33.895571      25.852655      104.26605    
-807647.87      2.5924239      32.038414      25.829928      103.84704    
-807643.28      3.5411359      31.832486      25.808855      103.42862    
-807629.97      3.1367226      32.740321      25.852393      103.00977    
-807607.95      3.5776488      34.648915      25.867708      102.59094    
-807610.9       3.1013948      34.912246      25.870788      102.17233    
-807622.7       3.114943       34.636147      25.833819      101.75455    
-807639.34      3.1977904      32.99104       25.811261      101.33735    
-807641.18      3.8371795      34.387806      25.854592      100.91974    
-807648.32      2.941395       34.429159      25.884506      100.50193    
-807649.77      3.4622477      34.326044      25.895325      100.08421    
-807639.1       3.0257981      33.727697      25.902919      99.666633    
-807617.29      3.5914464      35.899265      25.930347      99.248903    
-807611.09      3.445011       34.708805      25.908281      98.831744    
-807616.32      2.8540213      35.76701       25.880552      98.415227    
-807623.94      2.9052515      34.435755      25.864344      97.999176    
-807630.32      3.2009372      34.598049      25.876586      97.583181    
-807645.6       3.3074019      34.410401      25.874075      97.16745     
-807653.55      2.518149       33.71831       25.851488      96.752259    
-807644.78      3.459978       34.226232      25.8735        96.336983    
-807629.94      2.6387046      33.355345      25.878452      95.92186     
-807620.88      3.3185204      34.361465      25.847624      95.507374    
-807613.82      3.1849339      37.238109      25.830049      95.093336    
-807613.27      3.294191       35.128393      25.847782      94.679263    
-807619.44      3.4868615      33.833877      25.842175      94.265471    
-807636.69      2.8667945      32.867376      25.837474      93.851941    
-807649.75      2.8819514      33.382024      25.821841      93.438816    
-807647.77      3.3752263      34.576911      25.857221      93.025424    
-807640.39      2.8579183      33.800746      25.896814      92.611723    
-807632.43      3.5547393      33.67375       25.876572      92.198483    
-807625.37      3.3465109      34.423338      25.902169      91.785118    
-807609.82      4.202014       35.389098      25.884038      91.37218     
-807610.55      3.3256084      35.360873      25.895624      90.959293    
-807626.01      3.7876204      33.573291      25.85364       90.54712     
-807643.04      2.907161       33.003223      25.869578      90.134935    
-807646.26      4.5957231      33.871436      25.844045      89.723246    
-807646.86      3.5050488      33.781379      25.872153      89.311398    
-807642.99      4.3454827      34.273499      25.924985      88.899102    
-807636.86      3.123323       32.583599      25.926605      88.486978    
-807615.92      3.9134708      35.076702      25.889734      88.075475    
-807608.89      2.9577052      35.08313       25.872897      87.664347    
-807616.43      3.8251267      35.268233      25.844647      87.25372     
-807630.89      2.7388095      33.248707      25.845645      86.843249    
-807641.51      3.6128098      32.868641      25.86668       86.432705    
-807644.35      3.5733876      34.704166      25.894018      86.022021    
-807649.78      2.889841       33.83787       25.878719      85.611679    
-807643.84      3.4573594      33.230525      25.88444       85.201441    
-807629.78      3.139111       33.791533      25.884253      84.79137     
-807615.51      3.9425767      34.787124      25.889186      84.38141     
-807614.17      3.002929       35.847519      25.869255      83.971829    
-807619.1       3.5829249      35.278249      25.861036      83.562495    
-807630.67      3.0472483      33.937405      25.875959      83.153156    
-807637.39      4.8374908      35.198239      25.86833       82.744055    
-807648.98      3.203268       34.406654      25.871261      82.335076    
-807648.16      4.8588515      34.692328      25.863405      81.92633     
-807639.65      3.765236       33.164752      25.916961      81.517184    
-807625.59      4.8654678      34.428633      25.924436      81.108118    
-807620.89      4.1384888      34.744751      25.924277      80.699211    
-807615.7       3.5625379      34.196434      25.874426      80.290958    
-807618.74      2.9570109      33.667314      25.857744      79.883016    
-807628.68      3.2415299      33.877978      25.883528      79.474961    
-807645.33      3.0802022      33.247463      25.897217      79.066915    
-807648.13      3.5839561      34.157299      25.877269      78.659207    
-807644.92      3.4102197      33.949273      25.8917        78.251501    
-807635.13      3.5262377      34.291404      25.888713      77.843964    
-807630.26      2.7682621      33.561375      25.856095      77.436875    
-807617.04      3.0960807      35.763301      25.831447      77.030151    
-807609.76      3.2861669      36.604295      25.850788      76.623373    
-807618.77      3.3907531      35.506474      25.898346      76.216285    
-807635.5       3.4362697      33.625512      25.877409      75.809524    
-807643.76      3.3477172      33.798709      25.865391      75.403003    
-807644.98      3.7718132      34.953383      25.863891      74.996622    
-807644.89      3.4981425      33.878487      25.919532      74.589872    
-807639.6       3.0231598      33.419021      25.864816      74.183739    
-807627.39      3.6716309      34.070217      25.867853      73.777703    
-807611.65      3.5667425      35.715041      25.893283      73.37157     
-807612.44      3.7859365      36.130735      25.887398      72.965612    
-807622.9       2.9578729      34.744485      25.891794      72.559741    
-807634.74      3.5141557      34.004023      25.845692      72.154384    
-807639.95      3.5791475      35.107945      25.837031      71.749215    
-807644.61      4.2337         35.498898      25.874327      71.343848    
-807645.18      4.3508367      34.638734      25.858019      70.938733    
-807635.2       3.306909       34.591377      25.87429       70.533598    
-807620.8       3.8430969      34.953109      25.915751      70.128243    
-807612.42      3.145228       36.283906      25.882527      69.723274    
-807614.6       3.3272266      35.595626      25.882966      69.318417    
-807623.13      2.6485157      33.899913      25.872668      68.913753    
-807631.92      3.849478       34.154984      25.827785      68.509553    
-807643.52      3.092959       33.933387      25.851516      68.105271    
-807647.39      3.847453       34.141833      25.844661      67.701148    
-807642.14      2.9452999      34.026284      25.833871      67.297211    
-807631.2       4.2296001      34.433605      25.8561        66.893208    
-807622.45      3.3617006      34.640281      25.87573       66.489161    
-807616.28      4.2170813      35.949451      25.862774      66.085315    
-807612.7       3.4142905      35.944052      25.858131      65.681606    
-807622.85      4.3072772      35.070326      25.85639       65.278011    
-807637.93      3.1163315      33.193678      25.860116      64.874489    
-807643.96      3.3870179      33.955041      25.88445       64.470892    
-807646.33      3.3927677      34.006559      25.907015      64.067238    
-807640.59      3.6791352      34.117457      25.870363      63.663945    
-807634.46      3.3916679      33.2468        25.837041      63.260982    
-807623.42      3.2404735      34.003757      25.913354      62.857586    
-807613.64      3.5187181      34.817731      25.913664      62.45429     
-807613.93      3.4981406      34.942762      25.8629        62.051438    
-807627.13      3.6296759      33.560196      25.875819      61.648594    
-807638.39      3.3573794      33.915457      25.85139       61.246006    
-807644.56      2.9296526      33.934994      25.865582      60.843417    
-807645.6       3.489275       33.714189      25.922892      60.440545    
-807643.32      4.3785275      34.58444       25.913861      60.03783     
-807634.32      3.1051273      33.407602      25.93263       59.635091    
-807620.64      3.2860915      34.484578      25.940918      59.232398    
-807611.68      3.0292375      36.091666      25.943738      58.829784    
-807616.73      3.5496101      35.913181      25.813294      58.428079    
-807628.4       2.8832247      33.756446      25.845407      58.026257    
-807637.34      2.9263682      34.410295      25.879013      57.624313    
-807645.65      2.9427031      34.659183      25.905974      57.222293    
-807646.37      3.4288215      34.792888      25.892379      56.820445    
-807641.75      2.7849893      34.366543      25.914817      56.418551    
-807630.6       3.6911198      34.021957      25.898716      56.016841    
-807619.67      2.8163651      34.849124      25.924075      55.61507     
-807614.9       3.3086124      36.064373      25.880552      55.213638    
-807619.32      3.1438906      35.117879      25.905801      54.812145    
-807629.35      3.1424008      33.759617      25.926826      54.41062     
-807638.88      4.3075665      33.278965      25.930516      54.009161    
-807645.59      3.5143111      34.032574      25.925643      53.607816    
-807645.9       3.9066594      34.126382      25.94002       53.206477    
-807638.28      4.5720507      33.859366      25.939757      52.805227    
-807629.55      4.452936       33.19871       25.92079       52.404163    
-807620         4.2082295      33.99137       25.915422      52.00321     
-807616.5       3.6305941      35.801322      25.863821      51.602609    
-807617.79      3.5563124      34.730658      25.917768      51.201804    
-807632.26      2.9070735      32.988348      25.903279      50.801153    
-807641.75      3.2052447      32.30594       25.935246      50.400419    
-807647.35      3.2086085      33.157183      25.915399      49.999866    
-807642.61      2.8004785      33.02117       25.921062      49.599362    
-807640.81      2.8747718      31.884092      25.931859      49.198884    
-807628.38      2.8365178      32.92733       25.926553      48.79851     
-807620.43      4.0582362      34.89137       25.915821      48.398265    
-807613.5       3.2117604      35.37112       25.934448      47.998008    
-807621.89      3.9401803      34.915964      25.929521      47.597851    
-807631.22      3.0396463      34.324388      25.939574      47.197724    
-807642.51      3.4359766      33.877415      25.917932      46.797773    
-807643.52      3.832056       34.337877      25.905904      46.39795     
-807644.04      2.8491129      33.165184      25.885741      45.998289    
-807637.96      2.9515546      33.715739      25.93061       45.598499    
-807626.37      3.6917482      33.542237      25.912805      45.19886     
-807616.69      2.8352437      34.442594      25.867559      44.799489    
-807614.45      2.963567       34.056963      25.889317      44.40009     
-807624.8       2.3947575      33.670442      25.867465      44.000852    
-807631.55      2.9804221      33.836459      25.933212      43.601402    
-807641.44      3.8387692      33.989123      25.918439      43.202085    
-807644.28      3.0049721      34.349977      25.915873      42.802846    
-807645.03      3.5049333      34.788758      25.891667      42.403774    
-807633.85      3.3347063      34.963433      25.92178       42.004647    
-807625.07      3.5522597      35.181002      25.932564      41.605544    
-807613.32      3.6532535      37.215106      25.933804      41.206505    
-807617.48      3.1586926      36.088672      25.909012      40.807629    
-807619.63      3.4656856      34.724204      25.934175      40.408722    
-807633.15      2.7479921      33.254633      25.924183      40.00992     
-807640.41      3.7430923      33.745754      25.917491      39.611208    
-807645.89      3.1182174      33.665519      25.910915      39.212584    
-807641.11      2.9866719      34.050899      25.872481      38.814163    
-807635.06      3.0622381      33.419727      25.918528      38.415635    
-807624.83      2.7979358      34.214857      25.865381      38.017359    
-807618.82      2.759118       35.177521      25.911206      37.618981    
-807615.74      2.9943936      34.798287      25.88321       37.22076     
-807624.44      3.2709336      33.605764      25.884249      36.822594    
-807635         2.6151276      32.982601      25.926751      36.424343    
-807640.3       2.7317294      34.318631      25.918744      36.02618     
-807644.31      3.1616967      33.201191      25.869704      35.628238    
-807639.52      2.8655072      33.774123      25.916121      35.230201    
-807636.07      2.9783292      33.360022      25.884557      34.832324    
-807625.73      3.7704968      33.371006      25.872981      34.434539    
-807619.19      2.7524105      34.747736      25.845436      34.036894    
-807617.49      2.9952531      34.210232      25.89599       33.639147    
-807630.03      2.8180531      33.856896      25.885301      33.241487    
-807635.63      3.4284444      33.705303      25.8923        32.843861    
-807643.37      3.0930449      32.864398      25.879158      32.446327    
-807643.69      3.3296002      33.145105      25.864297      32.04889     
-807641.49      2.9024436      33.528929      25.902047      31.651397    
-807633.43      3.0199433      32.681401      25.940664      31.253851    
-807623.67      2.894167       33.43371       25.940856      30.856361    
-807616.62      3.2587941      34.328596      25.924178      30.458973    
-807621.94      3.3254313      34.733355      25.925591      30.061636    
-807628.98      2.9660983      33.673204      25.933701      29.664332    
-807636.77      2.9392002      33.356945      25.974066      29.266979    
-807644.28      3.3515011      33.123409      25.899985      28.869873    
-807645.5       3.2455408      33.223709      25.896083      28.472827    
-807639.27      2.882713       33.482302      25.841746      28.075967    
-807631.56      2.828525       32.711232      25.856604      27.679117    
-807622.11      2.6136022      33.685729      25.887117      27.28224     
-807618.19      3.3683978      34.660229      25.911103      26.885356    
-807621.46      3.4882187      34.711366      25.918429      26.488506    
-807629.14      3.2619494      33.633951      25.865844      26.091826    
-807637.29      3.4751033      33.412793      25.840281      25.695249    
-807642.96      2.9938491      33.948738      25.860761      25.298672    
-807644.72      3.1326961      33.332213      25.852365      24.902158    
-807636.26      3.0877931      33.397715      25.91077       24.505564    
-807632.05      3.1289802      32.903283      25.927948      24.108984    
-807622.37      3.7014684      34.659265      25.946958      23.712414    
-807620.2       4.2048924      34.461716      25.937515      23.315915    
-807619.8       3.4386613      34.573601      25.917444      22.919503    
-807632.05      3.8789956      33.523736      25.969444      22.52304     
-807636.89      4.1442523      33.535856      25.945962      22.126673    
-807640.09      3.7618228      34.164406      25.937844      21.730369    
-807641.15      3.5994415      33.496432      25.907765      21.334168    
-807636.76      2.6452262      33.566971      25.905857      20.938016    
-807627.53      3.1598506      34.531108      25.884571      20.541947    
-807621.97      3.2642675      33.860231      25.922962      20.145855    
-807618.84      3.1402193      34.019819      25.926675      19.749804    
-807624.24      4.0871987      34.097533      25.916689      19.353814    
-807630.49      3.1317249      33.723444      25.89873       18.957898    
-807637.64      3.6648941      34.312342      25.887033      18.562043    
-807639.89      3.2494422      34.570562      25.925492      18.166172    
-807640.36      3.6113148      34.773487      25.856768      17.770447    
-807633.15      3.1659112      34.364027      25.866381      17.374748    
-807627.91      3.6637432      34.211614      25.920724      16.979012    
-807618.09      3.179577       35.461985      25.925455      16.583313    
-807619.31      3.001995       35.571963      25.929422      16.187652    
-807622.2       3.3735181      35.133189      25.912571      15.792057    
-807631.76      2.7779294      34.109483      25.90851       15.396509    
-807638.37      3.7654748      34.241864      25.867119      15.001053    
-807641.5       3.2389739      34.413464      25.858682      14.605645    
-807638.39      3.4865456      33.830999      25.85936       14.210274    
-807632.34      2.7338764      34.223124      25.912383      13.814881    
-807624.12      3.2506439      35.045102      25.882125      13.419561    
-807618.64      3.9647603      35.696374      25.969191      13.024188    
-807617.67      3.4317855      35.343471      25.934514      12.628895    
-807623         3.6206505      34.856615      25.907686      12.233669    
-807632.54      4.0101796      34.915212      25.858949      11.838529    
-807637.05      4.1325336      34.98836       25.923517      11.443365    
-807639.4       3.6198782      34.297677      25.928047      11.048237    
-807636.61      3.5610748      34.385303      25.954654      10.653127    
-807633.23      3.8413612      34.108986      25.937347      10.258072    
-807623.54      3.377605       34.437379      25.918951      9.863072     
-807620.9       3.2042702      34.691296      25.926071      9.4681049    
-807620.26      3.2996453      34.796499      25.962142      9.0731507    
-807627.99      2.7316179      34.806701      26.005401      8.678208     
-807632.97      2.7643804      34.485421      26.01989       8.2832993    
-807638.46      3.5395599      34.443748      25.909608      7.8885029    
-807639.52      2.8076317      33.756452      25.92416       7.4937347    
-807638.35      3.0462943      33.436911      25.91874       7.099007     
-807630.25      3.8793452      34.000943      25.904114      6.7043238    
-807626         3.8395521      33.84069       25.925578      6.3096658    
-807619.71      3.6385639      34.785282      25.951596      5.9150327    
-807623.47      3.7820926      34.601131      25.976875      5.520427     
-807629.13      3.2010599      34.419892      25.99491       5.1258539    
-807635.09      3.4325282      33.618331      25.980976      4.7313263    
-807640.51      3.6239339      34.472057      25.932231      4.3368544    
-807640.49      3.0103156      33.748891      25.938982      3.9424165    
-807637.53      3.0885061      33.618506      25.98132       3.5480035    
-807630.15      3.0213427      33.531826      25.982654      3.1536288    
-807626         2.952314       33.155578      25.940792      2.7593016    
-807618.43      3.7438525      34.396462      25.981603      2.3650027    
-807624.13      3.1989782      33.934881      25.989488      1.9707407    
-807630.53      3.4551371      33.298491      25.954621      1.5765211    
-807636.93      3.5600023      33.397875      25.923968      1.1823402    
-807641.12      3.342026       33.982839      25.911943      0.78819389   
-807640.49      2.5346509      33.717871      25.906866      0.39408071   
-807637.37      3.2944262      32.824002      25.941675      0            
Loop time of 197.032 on 32 procs for 5000 steps with 1080 atoms

Performance: 4.385 ns/day, 5.473 hours/ns, 25.377 timesteps/s, 27.407 katom-step/s
67.5% CPU use with 32 MPI tasks x 1 OpenMP threads

MPI task timing breakdown:
Section |  min time  |  avg time  |  max time  |%varavg| %total
---------------------------------------------------------------
Pair    | 101.31     | 144.56     | 192.8      | 310.7 | 73.37
Neigh   | 0          | 0          | 0          |   0.0 |  0.00
Comm    | 1.9502     | 50.182     | 93.428     | 527.3 | 25.47
Output  | 0.026014   | 0.026928   | 0.028954   |   0.3 |  0.01
Modify  | 1.9399     | 1.9501     | 1.9614     |   0.3 |  0.99
Other   |            | 0.3141     |            |       |  0.16

Nlocal:          33.75 ave          48 max          21 min
Histogram: 8 8 0 0 0 0 0 8 0 8
Nghost:        1106.25 ave        1119 max        1092 min
Histogram: 8 0 8 0 0 0 0 0 8 8
Neighs:              0 ave           0 max           0 min
Histogram: 32 0 0 0 0 0 0 0 0 0
FullNghs:       5494.5 ave        7896 max        3378 min
Histogram: 8 8 0 0 0 0 0 8 0 8

Total # of neighbors = 175824
Ave neighs/atom = 162.8
Neighbor list builds = 0
Dangerous builds = 0

reset_timestep 0


variable interval equal 1000
thermo 10

variable nintervals equal $(v_PERIOD/v_interval)
variable nintervals equal 100
variable efield equal 1e-2*36.36*cos((step/${PERIOD})*2*3.14)
variable efield equal 1e-2*36.36*cos((step/100000)*2*3.14)
fix born all addbornforce 0.0 0.0 v_efield

variable Px equal f_born[1]+c_polarization[1]
variable Py equal f_born[2]+c_polarization[2]
variable Pz equal (f_born[3]+c_polarization[3])/vol
variable pe equal pe

fix aveP all ave/time 1 $(v_interval/2) ${interval} v_efield v_Pz v_pe f_born file Pz.${MODEL}.${STRUCTURE}.${TEMP}.$L.${ITER}
fix aveP all ave/time 1 500 ${interval} v_efield v_Pz v_pe f_born file Pz.${MODEL}.${STRUCTURE}.${TEMP}.$L.${ITER}
fix aveP all ave/time 1 500 1000 v_efield v_Pz v_pe f_born file Pz.${MODEL}.${STRUCTURE}.${TEMP}.$L.${ITER}
fix aveP all ave/time 1 500 1000 v_efield v_Pz v_pe f_born file Pz.BaTiO3-E0.${STRUCTURE}.${TEMP}.$L.${ITER}
fix aveP all ave/time 1 500 1000 v_efield v_Pz v_pe f_born file Pz.BaTiO3-E0.BaTiO3-sc333.${TEMP}.$L.${ITER}
fix aveP all ave/time 1 500 1000 v_efield v_Pz v_pe f_born file Pz.BaTiO3-E0.BaTiO3-sc333.300.$L.${ITER}
fix aveP all ave/time 1 500 1000 v_efield v_Pz v_pe f_born file Pz.BaTiO3-E0.BaTiO3-sc333.300.2.${ITER}
fix aveP all ave/time 1 500 1000 v_efield v_Pz v_pe f_born file Pz.BaTiO3-E0.BaTiO3-sc333.300.2.2

thermo_style custom step time temp press pe f_born v_efield v_Pz spcpu cpuremain

# dump 4a all custom 1000 dump.hyst.${MODEL}.${STRUCTURE}.${TEMP}.$L.${ITER}.bin id type xu yu zu fx fy fz
# dump_modify 4a sort id

fix nvt all nvt temp ${TEMP} ${TEMP} $(100*dt)
fix nvt all nvt temp 300 ${TEMP} $(100*dt)
fix nvt all nvt temp 300 300 $(100*dt)
fix nvt all nvt temp 300 300 0.2000000000000000111

run $(v_PERIOD)
run 100000
WARNING: non-constant efield is experimental, strongly distrust scalar/vector output (src/fix_addbornforce.cpp:193)
Per MPI rank memory allocation (min/avg/max) = 3.516 | 3.516 | 3.516 Mbytes
   Step          Time           Temp          Press          PotEng         f_born        v_efield         v_Pz          S/CPU         CPULeft    
         0   0              312.59817      130571.53     -807637.37     -300.22373      0.3636         0.056463613    0              0            
        10   0.02           290.62262      133983.12     -807629.12     -305.55221      0.36359993     0.057465761    28.654898      3489.4747    
        20   0.04           300.25876      142192.54     -807623.38     -312.51874      0.36359971     0.058776003    28.701579      3486.2817    
        30   0.06           290.40002      140541.91     -807621.43     -313.21951      0.36359935     0.058907857    28.681215      3485.8073    
        40   0.08           305.6467       141041.05     -807624.65     -311.96939      0.36359885     0.058672824    28.675684      3485.5628    
        50   0.1            297.79881      132599.93     -807632.48     -303.13488      0.36359821     0.057011398    28.63917       3486.1665    
        60   0.12           292.23653      130573.68     -807636.5      -298.13622      0.36359742     0.056071409    28.671693      3485.7926    
        70   0.14           286.72175      124198.6      -807641.64     -292.28581      0.36359649     0.054971245    28.640379      3485.9705    
        80   0.16           300.49843      127394.97     -807639.78     -295.86903      0.36359541     0.055645318    28.631817      3486.1475    
        90   0.18           302.54171      130067.95     -807636.52     -299.49798      0.36359419     0.056328019    28.602001      3486.6107    
       100   0.2            292.78376      138114.64     -807626.84     -307.72305      0.36359283     0.057875163    28.617224      3486.726     
       110   0.22           308.16348      139714.47     -807624.75     -311.87075      0.36359132     0.058655487    28.618322      3486.7446    
       120   0.24           300.56935      141690.68     -807621.86     -313.48983      0.36358968     0.058960266    28.630053      3486.5828    
       130   0.26           297.05604      138529.9      -807625.24     -309.49645      0.36358788     0.058209489    28.638769      3486.3104    
       140   0.28           300.52286      132718.25     -807632.07     -302.93553      0.36358595     0.056975827    28.651125      3485.9196    
       150   0.3            308.19385      128205.32     -807639.15     -296.70024      0.36358387     0.055803419    28.603218      3485.9236    
       160   0.32           290.33414      126121.51     -807638.88     -294.22777      0.36358165     0.055338734    28.60763       3485.8497    
       170   0.34           307.78715      127762.2      -807638.88     -296.41685      0.36357928     0.055750822    28.648253      3485.4523    
       180   0.36           303.0461       132150.54     -807633.32     -301.09704      0.36357677     0.056631475    28.594958      3485.4213    
       190   0.38           310.64012      138509.35     -807625.85     -309.36268      0.36357412     0.058186533    28.651148      3484.996     
       200   0.4            303.03002      141646.18     -807621        -312.9031       0.36357132     0.058852886    28.637114      3484.6639    
       210   0.42           307.15332      141504.09     -807621.63     -312.48386      0.36356838     0.058774507    28.639583      3484.3159    
       220   0.44           319.21607      136679.16     -807628.33     -307.25304      0.3635653      0.057791142    28.661683      3483.8456    
       230   0.46           301.15892      133754.69     -807630.9      -301.90287      0.36356207     0.056785336    28.643605      3483.4814    
       240   0.48           310.7509       127634.02     -807637.65     -296.20944      0.3635587      0.055714966    28.641147      3483.1312    
       250   0.5            307.59218      126656.76     -807639.24     -293.97874      0.36355519     0.05529592     28.624759      3482.8606    
       260   0.52           307.24763      128169.6      -807636.86     -296.23086      0.36355153     0.055720094    28.602475      3482.6881    
       270   0.54           300.56263      135674.7      -807628.57     -303.51048      0.36354773     0.057089964    28.65971       3482.2448    
       280   0.56           324.4837       138210.99     -807626.23     -309.14708      0.36354379     0.058150833    28.697886      3481.6431    
       290   0.58           311.76409      142487.57     -807620.56     -312.92624      0.3635397      0.058862358    28.66539       3481.1944    
       300   0.6            316.88411      139973.92     -807623.45     -310.76766      0.36353547     0.058457002    28.657731      3480.7833    
       310   0.62           316.17819      137409.78     -807626.34     -307.76762      0.3635311      0.057893376    28.715671      3480.1502    
       320   0.64           312.77565      131237.14     -807633.56     -300.18613      0.36352658     0.056467943    28.706453      3479.5695    
       330   0.66           307.25597      128017.82     -807637.48     -295.4627       0.36352192     0.055580133    28.632509      3479.2746    
       340   0.68           303.33575      126718.55     -807638.92     -293.63518      0.36351712     0.055237083    28.625995      3478.9998    
       350   0.7            306.61164      130431.88     -807635.05     -298.0809       0.36351217     0.056074152    28.616526      3478.7536    
       360   0.72           309.92137      133566.75     -807630.38     -303.43389      0.36350708     0.057081941    28.634657      3478.4405    
       370   0.74           326.64426      138257.25     -807626.75     -309.52396      0.36350185     0.058228442    28.680652      3477.9746    
       380   0.76           302.759        141583.72     -807620.16     -313.03431      0.36349647     0.05888969     28.665229      3477.5642    
       390   0.78           306.4128       140253.11     -807622.33     -311.60851      0.36349095     0.05862235     28.623248      3477.2875    
       400   0.8            309.08686      135856.85     -807628.43     -306.10263      0.36348529     0.057587435    28.643106      3476.9467    
       410   0.82           308.15744      131397        -807634.57     -300.01066      0.36347948     0.056442248    28.630265      3476.6437    
       420   0.84           307.66712      127802.63     -807639.37     -295.32534      0.36347353     0.05556169     28.61186       3476.3919    
       430   0.86           296.6634       127944.19     -807639        -294.31587      0.36346744     0.055372699    28.603327      3476.1593    
       440   0.88           296.60044      129566.86     -807635.78     -297.76011      0.3634612      0.056021661    28.62544       3475.8607    
       450   0.9            329.40267      133636.02     -807633.57     -304.6443       0.36345482     0.057317883    28.659956      3475.4667    
       460   0.92           295.90104      139076.51     -807622.93     -310.80134      0.3634483      0.05847736     28.687128      3475.0029    
       470   0.94           302.26409      141128.06     -807622.07     -312.61009      0.36344163     0.058818757    28.616944      3474.7253    
       480   0.96           303.67092      139022.35     -807625.01     -309.89838      0.36343482     0.05830963     28.636381      3474.3953    
       490   0.98           300.51535      134824.2      -807628.97     -305.5493       0.36342786     0.05749242     28.640029      3474.0556    
       500   1              311.15681      129715.44     -807636.26     -299.79816      0.36342077     0.056411383    28.618769      3473.7672    
       510   1.02           294.6037       127488.51     -807638.53     -9447.0948      0.36341353     0.055551364    28.523478      3473.704     
       520   1.04           300.66865      127821.46     -807639.66     -9438.1806      0.36340614     0.055500073    28.601441      3473.4471    
       530   1.06           303.37474      130398.73     -807635.9      -9573.3075      0.36339862     0.056295837    28.639502      3473.0993    
       540   1.08           303.38156      135775.79     -807628.55     -9812.77        0.36339095     0.057705214    28.661683      3472.7018    
       550   1.1            301.28971      139331.98     -807624.1      -9946.5272      0.36338313     0.058493048    28.662831      3472.3035    
       560   1.12           301.37013      140602.43     -807623.25     -9974.506       0.36337518     0.058658869    28.657536      3471.9184    
       570   1.14           312.45565      137875.75     -807627.67     -9882.9307      0.36336707     0.058121621    28.64592       3471.5593    
       580   1.16           303.84875      134664.55     -807630.33     -9761.0261      0.36335883     0.057406001    28.651778      3471.1883    
       590   1.18           298.60033      129104.15     -807636.75     -9531.4559      0.36335044     0.056057159    28.631364      3470.8599    
       600   1.2            299.78236      126884.98     -807641.11     -9397.6253      0.36334191     0.055271361    28.619415      3470.5551    
       610   1.22           294.65865      127565.73     -807638.39     -9463.0942      0.36333324     0.05565774     28.663646      3470.1609    
       620   1.24           299.23832      131022.26     -807633.82     -9631.8476      0.36332442     0.056651648    28.656624      3469.7818    
       630   1.26           307.32467      136010.03     -807629.53     -9805.7006      0.36331546     0.057675622    28.579895      3469.5516    
       640   1.28           288.54827      139117.47     -807623.21     -9926.2563      0.36330636     0.058386175    28.569681      3469.3369    
       650   1.3            301.65788      141313.37     -807622.88     -9994.6524      0.36329711     0.058789977    28.55546       3469.1448    
       660   1.32           302.34848      137872.95     -807626.5      -9883.9159      0.36328772     0.058140111    28.537242      3468.9815    
       670   1.34           305.24374      133662.74     -807632.85     -9694.2275      0.36327819     0.057025805    28.523797      3468.8371    
       680   1.36           296.66246      128169.79     -807638.16     -9485.1473      0.36326851     0.055797387    28.524677      3468.6851    
       690   1.38           297.2197       127483.65     -807639.37     -9448.6585      0.36325869     0.05558424     28.54045       3468.4995    
       700   1.4            300.07001      127143.69     -807639.39     -9463.6076      0.36324873     0.05567371     28.608333      3468.1911    
       710   1.42           296.77663      133071.11     -807632.28     -9675.5653      0.36323863     0.056922225    28.601258      3467.8938    
       720   1.44           302.90186      136313.06     -807628.85     -9817.6155      0.36322838     0.057759549    28.59975       3467.5975    
       730   1.46           295.74131      141139.79     -807622.01     -10002.718      0.36321798     0.058850239    28.584831      3467.3245    
       740   1.48           299.9892       139002.99     -807624.27     -9949.6736      0.36320745     0.058539853    28.568507      3467.0763    
       750   1.5            303.14814      136674.31     -807628.38     -9832.3557      0.36319677     0.057851303    28.545457      3466.8628    
       760   1.52           302.5059       131344.17     -807634.16     -9644.4401      0.36318595     0.056747342    28.589408      3466.5754    
       770   1.54           294.37018      127491.5      -807638.24     -9476.7882      0.36317498     0.055762572    28.626699      3466.2276    
       780   1.56           299.47827      126676.1      -807641.24     -9401.8802      0.36316387     0.055323496    28.625537      3465.8816    
       790   1.58           296.04488      128370.57     -807637.46     -9510.4145      0.36315262     0.055963879    28.626613      3465.5338    
       800   1.6            304.38135      134117.74     -807632.66     -9700.0371      0.36314122     0.057081501    28.612815      3465.2069    
       810   1.62           299.79816      137598.29     -807627.74     -9838.2737      0.36312968     0.057896817    28.58386       3464.9228    
       820   1.64           290.9499       141454.48     -807621.42     -9998.0662      0.363118       0.058839065    28.58874       3464.6299    
       830   1.66           303.35202      137837.85     -807626.42     -9896.8725      0.36310618     0.058245433    28.619152      3464.2912    
       840   1.68           304.05808      136324.22     -807628.56     -9824.7263      0.36309421     0.057822741    28.647966      3463.9108    
       850   1.7            289.5929       129584.32     -807634.31     -9577.6496      0.3630821      0.056370469    28.64447       3463.536     
       860   1.72           294.65827      128719.72     -807637.9      -9478.1458      0.36306984     0.05578671     28.666526      3463.1309    
       870   1.74           298.99396      124761.62     -807640.4      -9419.7274      0.36305745     0.055444762    28.631198      3462.7761    
       880   1.76           294.95223      131287.59     -807634.38     -9587.3916      0.3630449      0.056433588    28.614022      3462.4451    
       890   1.78           298.24945      132941.66     -807632.06     -9677.6593      0.36303222     0.056966914    28.622172      3462.1026    
       900   1.8            306.80275      140029.23     -807625.48     -9919.3805      0.36301939     0.058391854    28.551166      3461.8556    
       910   1.82           293.97815      138540.28     -807622.68     -9952.6055      0.36300642     0.058589531    28.502492      3461.6714    
       920   1.84           298.43544      141300.89     -807623.41     -9941.3598      0.36299331     0.058525443    28.547808      3461.4237    
       930   1.86           303.18944      132784.96     -807631.5      -9702.9359      0.36298005     0.057123912    28.603561      3461.101     
       940   1.88           304.48856      131835.6      -807634.61     -9598.0485      0.36296665     0.056508497    28.519899      3460.8858    
       950   1.9            295.48321      126824.25     -807639.13     -9412.4281      0.36295311     0.055417724    28.523802      3460.6628    
       960   1.92           299.15907      129085.74     -807637.1      -9484.4404      0.36293942     0.055843819    28.567384      3460.3819    
       970   1.94           302.69544      128110.74     -807636.27     -9524.4364      0.36292559     0.056081449    28.545691      3460.1268    
       980   1.96           307.56565      136253.44     -807629.47     -9755.8045      0.36291162     0.057445995    28.542134      3459.8741    
       990   1.98           302.86629      137502.49     -807625.13     -9874.0472      0.3628975      0.058144515    28.575942      3459.578     
      1000   2              299.29559      142125.9      -807620.5      -9997.6464      0.36288325     0.058874658    28.475538      3459.403     
      1010   2.02           309.06395      136937.19     -807626.95     -307.29426      0.36286884     0.057909829    28.665826      3458.996     
      1020   2.04           313.69317      134708.75     -807631.51     -303.04633      0.3628543      0.057111592    28.676643      3458.5774    
      1030   2.06           300.9358       128575.58     -807635.17     -297.55972      0.36283961     0.056079866    28.651532      3458.1895    
      1040   2.08           301.16772      128431.65     -807636.83     -295.73678      0.36282478     0.055738583    28.668088      3457.7832    
      1050   2.1            299.31032      127266.43     -807637.5      -294.75279      0.3628098      0.055555418    28.636827      3457.4139    
      1060   2.12           303.89757      131812.63     -807633.15     -299.6464       0.36279469     0.056480126    28.646292      3457.0341    
      1070   2.14           301.4938       136848.49     -807625.64     -306.8248       0.36277943     0.057835611    28.605138      3456.7014    
      1080   2.16           306.9644       140410.87     -807622.28     -310.86978      0.36276402     0.058600567    28.663749      3456.3029    
      1090   2.18           313.05382      141118.98     -807624        -309.88859      0.36274848     0.058418111    28.691917      3455.8742    
      1100   2.2            310.25465      137157.24     -807626.59     -306.89515      0.36273279     0.057856309    28.647049      3455.496     
      1110   2.22           316.93541      133761.01     -807631.59     -302.78219      0.36271695     0.057083421    28.67012       3455.0934    
      1120   2.24           306.78744      127034.38     -807637.31     -295.71178      0.36270098     0.055752894    28.639027      3454.7251    
      1130   2.26           302.78298      127867.67     -807638.17     -294.29758      0.36268486     0.055488729    28.627323      3454.3697    
      1140   2.28           291.92363      127298.33     -807636.77     -294.37001      0.3626686      0.055504875    28.618162      3454.0241    
      1150   2.3            311.32848      133135.34     -807631.77     -302.17019      0.36265219     0.056978214    28.613095      3453.6837    
      1160   2.32           304.76994      136023.07     -807627.02     -306.26389      0.36263564     0.057752771    28.649605      3453.3053    
      1170   2.34           295.0676       141675.14     -807621.06     -310.95368      0.36261895     0.058639833    28.654932      3452.9218    
      1180   2.36           304.93473      138812.88     -807624.81     -308.887        0.36260212     0.058252801    28.643003      3452.5511    
      1190   2.38           306.58109      138668.59     -807625.9      -308.21904      0.36258514     0.058129552    28.676976      3452.1464    
      1200   2.4            297.66907      131095.19     -807632.2      -301.1115       0.36256802     0.056791764    28.6303        3451.7895    
      1210   2.42           299.68783      130027.39     -807637.32     -296.36929      0.36255076     0.055900011    28.607636      3451.4553    
      1220   2.44           296.21641      124985.88     -807641.41     -292.17595      0.36253335     0.055111727    28.649399      3451.0796    
      1230   2.46           287.18758      130355.35     -807634.72     -297.8023       0.3625158      0.056175717    28.624622      3450.7285    
      1240   2.48           304.63294      130104.09     -807634.89     -300.4366       0.36249811     0.056675402    28.633059      3450.3693    
      1250   2.5            309.2282       137902.42     -807628.76     -307.32491      0.36248028     0.057977689    28.662699      3449.9817    
      1260   2.52           284.49097      139010.58     -807623.99     -308.98417      0.3624623      0.058293604    28.689508      3449.5692    
      1270   2.54           290.48074      140677.95     -807622.33     -311.54653      0.36244418     0.058779963    28.658585      3449.187     
      1280   2.56           313.81823      134313.69     -807631.88     -305.46344      0.36242592     0.057635162    28.688301      3448.7774    
      1290   2.58           298.45631      132761.97     -807634.37     -300.82982      0.36240751     0.056763767    28.664214      3448.3911    
      1300   2.6            282.58188      127358.37     -807637.69     -295.37188      0.36238896     0.055736759    28.635413      3448.0321    
      1310   2.62           284.91985      127356.2      -807638.45     -294.88291      0.36237027     0.055647359    28.590013      3447.7149    
      1320   2.64           291.93056      127917.79     -807638.47     -295.90067      0.36235143     0.055842323    28.583524      3447.4033    
      1330   2.66           299.5042       132903.52     -807634.16     -301.24737      0.36233245     0.05685433     28.635212      3447.0442    
      1340   2.68           297.29854      136309.1      -807627.77     -307.42335      0.36231333     0.058022983    28.640299      3446.6807    
      1350   2.7            292.08514      139911.73     -807623.94     -310.47428      0.36229407     0.05860193     28.612849      3446.3418    
      1360   2.72           300.69927      138843.58     -807626.21     -309.29198      0.36227466     0.058381898    28.596203      3446.0176    
      1370   2.74           297.46722      135116.08     -807630.2      -304.844        0.36225511     0.057545404    28.63425       3445.6595    
      1380   2.76           294.48898      131498.07     -807634.01     -300.51279      0.36223542     0.056730885    28.665809      3445.2741    
      1390   2.78           280.43799      128032.82     -807636.61     -295.83698      0.36221558     0.055851243    28.600001      3444.9462    
      1400   2.8            285.44605      127082.38     -807639.01     -293.96447      0.3621956      0.055500792    28.59377       3444.6233    
      1410   2.82           293.90634      128405.82     -807637.3      -296.8264       0.36217548     0.056044241    28.681755      3444.2251    
      1420   2.84           299.28952      134374.73     -807631.22     -303.48282      0.36215522     0.057304256    28.699129      3443.8129    
      1430   2.86           306.7353       137008.46     -807628.3      -307.39584      0.36213481     0.058046392    28.719432      3443.3845    
      1440   2.88           296.80112      139921.09     -807624.28     -309.77313      0.36211426     0.058498622    28.693251      3442.9791    
      1450   2.9            300.56995      138118.01     -807626.14     -308.36558      0.36209357     0.058236143    28.684042      3442.582     
      1460   2.92           295.2048       135110.42     -807629.12     -304.42996      0.36207273     0.057496193    28.712406      3442.1624    
      1470   2.94           300.87858      129995.65     -807635.81     -298.35062      0.36205176     0.056351282    28.675379      3441.7739    
      1480   2.96           294.01827      127907.23     -807638.09     -294.91688      0.36203064     0.05570598     28.646029      3441.4096    
      1490   2.98           290.35293      127161.19     -807637.82     -294.50112      0.36200937     0.055630716    28.629876      3441.0587    
      1500   3              310.77762      130484.96     -807636.9      -298.14914      0.36198796     0.056323152    28.656859      3440.6861    
      1510   3.02           304.11122      134612.97     -807630.35     -9717.1006      0.36196642     0.057367505    28.613255      3440.3485    
      1520   3.04           297.64312      138366.97     -807624.66     -9865.1488      0.36194472     0.058245038    28.600355      3440.021     
      1530   3.06           298.52095      139221.76     -807623.92     -9888.7127      0.36192289     0.058387684    28.590807      3439.7008    
      1540   3.08           300.7137       138532.09     -807625.99     -9826.7311      0.36190091     0.058025239    28.537429      3439.4219    
      1550   3.1            297.8334       134492.7      -807629.24     -9705.9196      0.36187879     0.05731537     28.518513      3439.1569    
      1560   3.12           311.38514      130122.15     -807636.57     -9526.327       0.36185653     0.056258301    28.495827      3438.9085    
      1570   3.14           297.98006      128366.56     -807638.33     -9406.1903      0.36183412     0.055552266    28.526769      3438.6348    
      1580   3.16           296.34887      128660.56     -807636.72     -9448.8369      0.36181157     0.055807612    28.529071      3438.3584    
      1590   3.18           304.28085      130364.27     -807633.93     -9572.2852      0.36178888     0.05654028     28.548849      3438.0661    
      1600   3.2            294.33275      135664.66     -807627.88     -9718.5719      0.36176605     0.057407969    28.624318      3437.7162    
      1610   3.22           307.47886      137082.64     -807627.64     -9784.7979      0.36174307     0.05780284     28.597151      3437.3867    
      1620   3.24           302.96898      139449.8      -807623.95     -9878.8224      0.36171995     0.058362011    28.597648      3437.0565    
      1630   3.26           310.73367      136921.39     -807626.93     -9817.2978      0.36169669     0.058002267    28.615034      3436.7132    
      1640   3.28           310.95914      133660.27     -807631.57     -9667.9221      0.36167329     0.057123426    28.596608      3436.3834    
      1650   3.3            312.8264       129437.65     -807637.36     -9487.9984      0.36164974     0.056063988    28.611569      3436.0424    
      1660   3.32           293.6995       128689.67     -807635.81     -9452.8273      0.36162605     0.055859823    28.569659      3435.7317    
      1670   3.34           290.4429       129190.84     -807634.55     -9479.9471      0.36160222     0.056023775    28.560193      3435.4274    
      1680   3.36           301.69274      131871.43     -807633.34     -9567.662       0.36157824     0.056545894    28.57783       3435.1099    
      1690   3.38           298.12787      135213.37     -807628.5      -9706.75        0.36155413     0.057371746    28.613684      3434.7665    
      1700   3.4            313.3938       138231.39     -807626.24     -9847.4034      0.36152987     0.058206983    28.626733      3434.4138    
      1710   3.42           310.5793       137989.49     -807625.04     -9875.76        0.36150546     0.058378537    28.595672      3434.0829    
      1720   3.44           300.91976      136454.7      -807626.87     -9773.3897      0.36148092     0.057777318    28.596311      3433.7514    
      1730   3.46           308.68048      132594.88     -807633.24     -9605.1645      0.36145623     0.0567867      28.591258      3433.4232    
      1740   3.48           298.67759      129881.64     -807634.68     -9515.5066      0.3614314      0.056260498    28.629475      3433.0684    
      1750   3.5            287.5955       128645.41     -807635.7      -9434.4379      0.36140643     0.055785033    28.569625      3432.7547    
      1760   3.52           298.59055      129272.1      -807637.34     -9429.8477      0.36138131     0.055761767    28.597556      3432.4215    
      1770   3.54           300.22202      131734.44     -807633.59     -9558.7904      0.36135605     0.056528198    28.625634      3432.0691    
      1780   3.56           308.33102      135895.67     -807628.57     -9755.554       0.36133065     0.057695863    28.639909      3431.7071    
      1790   3.58           307.44639      138201.95     -807625.36     -9855.5495      0.36130511     0.058291372    28.635441      3431.3483    
      1800   3.6            304.71618      138960.01     -807626.28     -9812.2021      0.36127942     0.058039117    28.610305      3431.0063    
      1810   3.62           294.28925      136465.16     -807627.82     -9718.5858      0.3612536      0.057489487    28.547495      3430.7059    
      1820   3.64           298.76975      133651.81     -807630.89     -9638.4764      0.36122763     0.057019706    28.533141      3430.4145    
      1830   3.66           301.37531      129539.45     -807635.7      -9498.0117      0.36120151     0.056192801    28.616995      3430.0674    
      1840   3.68           294.58818      128678.72     -807637.29     -9414.7277      0.36117526     0.055704119    28.606104      3429.7273    
      1850   3.7            296.05224      128668.93     -807637.1      -9429.2653      0.36114886     0.055794211    28.625165      3429.3748    
      1860   3.72           309.61502      132140.38     -807632.56     -9636.6724      0.36112232     0.057025658    28.642092      3429.0114    
      1870   3.74           291.42664      136164.48     -807626.65     -9747.1744      0.36109564     0.057683823    28.627787      3428.6574    
      1880   3.76           298.46373      138538.3      -807626.44     -9784.0177      0.36106881     0.057906163    28.588038      3428.3287    
      1890   3.78           299.23191      137472.55     -807626.62     -9782.3822      0.36104184     0.057900808    28.596448      3427.9945    
      1900   3.8            302.11128      136172.72     -807627.92     -9755.7753      0.36101474     0.057747661    28.585367      3427.667     
      1910   3.82           310.11879      132123.49     -807633.43     -9614.8866      0.36098748     0.056917991    28.565401      3427.352     
      1920   3.84           294.03703      129737.34     -807636.96     -9431.8169      0.36096009     0.055838497    28.584066      3427.0248    
      1930   3.86           290.3164       128562.54     -807637.24     -9407.0802      0.36093255     0.055696298    28.607121      3426.6832    
      1940   3.88           309.19646      128967.44     -807637.07     -9497.2423      0.36090487     0.056234432    28.652082      3426.3137    
      1950   3.9            300.07082      133093.84     -807631.85     -9626.4337      0.36087705     0.057003786    28.604864      3425.9734    
      1960   3.92           286.02475      136393.46     -807627.6      -9701.9995      0.36084909     0.057455708    28.622132      3425.6224    
      1970   3.94           298.0004       138128.69     -807627.18     -9768.6328      0.36082098     0.057854819    28.616103      3425.2751    
      1980   3.96           302.47741      136939.91     -807626.38     -9816.5058      0.36079273     0.058142899    28.576501      3424.9518    
      1990   3.98           288.81619      135713.02     -807627.3      -9727.4762      0.36076434     0.057620114    28.550443      3424.6439    
      2000   4              298.29768      131567.41     -807634.69     -9532.9211      0.36073581     0.056472145    28.605795      3424.3025    
      2010   4.02           296.71165      129407.01     -807637.47     -294.88193      0.36070713     0.055903751    28.733466      3423.8852    
      2020   4.04           292.69547      129165.27     -807636.04     -295.83569      0.36067831     0.056089047    28.736084      3423.467     
      2030   4.06           295.92508      130155.29     -807634.91     -297.44371      0.36064935     0.056398447    28.75931       3423.036     
      2040   4.08           309.86558      132148.39     -807635.15     -299.16459      0.36062025     0.056729322    28.748356      3422.6121    
      2050   4.1            291.45639      135830.21     -807628.31     -303.52885      0.36059101     0.057561566    28.710437      3422.211     
      2060   4.12           299.12228      137250.34     -807626.34     -306.60433      0.36056162     0.058149543    28.66298       3421.8378    
      2070   4.14           293.03666      137466.24     -807626.65     -305.48046      0.36053209     0.057941138    28.652575      3421.4708    
      2080   4.16           285.7688       134510        -807629.35     -301.81601      0.36050242     0.057250805    28.636278      3421.1133    
      2090   4.18           299.17939      131436.22     -807634.63     -298.3427       0.36047261     0.056596642    28.586508      3420.7844    
      2100   4.2            303.42878      129014.79     -807636.7      -296.91779      0.36044265     0.056331013    28.660869      3420.413     
      2110   4.22           294.81767      129606.36     -807636.64     -295.76044      0.36041256     0.056116126    28.67457       3420.034     
      2120   4.24           293.17827      130647.81     -807636.48     -295.74554      0.36038232     0.056118008    28.640648      3419.6745    
      2130   4.26           304.81276      132816.69     -807633.62     -300.21624      0.36035193     0.056971131    28.661563      3419.3033    
      2140   4.28           295.41792      135279.07     -807628.45     -304.14004      0.36032141     0.057720628    28.671957      3418.9265    
      2150   4.3            288.79655      137550.49     -807626.1      -305.54857      0.36029075     0.057992878    28.637056      3418.5693    
      2160   4.32           297.05555      135267.03     -807629.86     -302.91698      0.36025994     0.057498322    28.651239      3418.2044    
      2170   4.34           292.24746      134094.05     -807629.91     -302.15298      0.36022899     0.05735823     28.636232      3417.8479    
      2180   4.36           302.61523      130769.22     -807635.05     -298.43464      0.36019789     0.056657261    28.663439      3417.4766    
      2190   4.38           291.48874      129640.22     -807635.58     -296.21435      0.36016666     0.056240619    28.676591      3417.0983    
      2200   4.4            289.18977      128601.95     -807637.96     -293.47124      0.36013528     0.055724656    28.67546       3416.7209    
      2210   4.42           292.50123      131351.98     -807635.03     -296.80844      0.36010377     0.056363259    28.674839      3416.3441    
      2220   4.44           296.19555      132844.39     -807631.42     -300.87786      0.36007211     0.057141057    28.689704      3415.9596    
      2230   4.46           298.26364      136076.32     -807629.1      -303.27658      0.3600403      0.057601697    28.666262      3415.5879    
      2240   4.48           299.67851      135604.1      -807629.81     -302.65282      0.36000836     0.057488325    28.710178      3415.1931    
      2250   4.5            306.47196      136018.15     -807629.44     -303.78053      0.35997627     0.057707675    28.694735      3414.8069    
      2260   4.52           303.934        133386.42     -807631.19     -301.50973      0.35994404     0.05728143     28.711519      3414.4122    
      2270   4.54           307.20959      131114.33     -807635.08     -297.80308      0.35991167     0.056582322    28.718648      3414.0142    
      2280   4.56           307.47541      128969.32     -807638.93     -293.74935      0.35987916     0.05581716     28.716489      3413.6178    
      2290   4.58           297.20199      130207.21     -807635.38     -295.69417      0.35984651     0.056191805    28.730318      3413.2146    
      2300   4.6            298.26935      131520.91     -807632.6      -298.43319      0.35981371     0.056717481    28.760408      3412.7964    
      2310   4.62           304.84475      132781.48     -807632.59     -299.09593      0.35978077     0.056848639    28.70955       3412.4049    
      2320   4.64           307.74432      135358.18     -807629.9      -301.94284      0.35974769     0.057395023    28.668025      3412.035     
      2330   4.66           297.8272       136256.28     -807625.94     -304.38302      0.35971447     0.05786421     28.681175      3411.6586    
      2340   4.68           304.0202       136886.93     -807626.91     -304.03675      0.35968111     0.057803745    28.685876      3411.2801    
      2350   4.7            310.51137      132490.87     -807632.37     -299.23945      0.3596476      0.056896978    28.698588      3410.8953    
      2360   4.72           301.65144      131802.12     -807633.12     -297.01303      0.35961396     0.056478932    28.648602      3410.5361    
      2370   4.74           300.56917      129573.7      -807634.91     -294.96506      0.35958017     0.056094768    28.644493      3410.179     
      2380   4.76           300.08851      131055        -807633.55     -296.10879      0.35954624     0.056317591    28.665155      3409.8116    
      2390   4.78           305.23516      130863.4      -807633.98     -296.25754      0.35951216     0.056351222    28.661282      3409.4463    
      2400   4.8            303.23005      133710.62     -807629.73     -300.02314      0.35947795     0.057072909    28.658327      3409.0826    
      2410   4.82           313.27465      134304.84     -807628.78     -302.32061      0.35944359     0.05751545     28.678894      3408.7089    
      2420   4.84           305.57718      138097.85     -807625.71     -304.20232      0.35940909     0.057878995    28.630574      3408.3591    
      2430   4.86           316.74336      134963.63     -807629.76     -301.66482      0.35937446     0.057401729    28.666704      3407.9917    
      2440   4.88           312.73558      133696.32     -807631.72     -299.05209      0.35933967     0.056910079    28.67225       3407.6217    
      2450   4.9            304.34484      130761.31     -807633.5      -296.09109      0.35930475     0.056352072    28.698243      3407.2393    
      2460   4.92           306.77528      130920.02     -807634.7      -295.20695      0.35926969     0.056189288    28.681273      3406.8654    
      2470   4.94           298.18754      129270.59     -807634.32     -294.4264       0.35923448     0.05604621     28.631851      3406.5154    
      2480   4.96           305.69488      132837.38     -807633        -296.79584      0.35919913     0.05650281     28.610042      3406.176     
      2490   4.98           299.14319      133848.61     -807628.87     -300.19602      0.35916364     0.05715577     28.66857       3405.8084    
      2500   5              316.49445      137236.52     -807627.76     -303.73324      0.35912801     0.057834976    28.734192      3405.41      
[...]
     98740   197.48         303.06326      135548.73     -807627.48     -9764.4522      0.36236891     0.057583027    29.006609      43.92089     
     98750   197.5          305.32036      134705.84     -807628.53     -9737.0412      0.36238762     0.057418415    29.08783       43.572251    
     98760   197.52         314.24073      132172.71     -807633.2      -9627.3016      0.36240618     0.056768384    29.101575      43.223611    
     98770   197.54         307.3971       132885.01     -807632.13     -9627.6656      0.36242459     0.056767645    29.055955      42.874978    
     98780   197.56         298.19886      131664.4      -807631.05     -9623.885       0.36244287     0.056742492    29.079016      42.526343    
     98790   197.58         305.1108       134671.89     -807630.82     -9659.4191      0.362461       0.056949153    29.089372      42.177708    
     98800   197.6          313.70125      132101.59     -807633.56     -9612.6684      0.36247899     0.056670712    29.099375      41.829072    
     98810   197.62         313.19575      134975.45     -807630.11     -9719.9035      0.36249683     0.057300086    29.01592       41.480449    
     98820   197.64         304.05039      134538.65     -807628.56     -9735.8122      0.36251453     0.057391068    29.05135       41.131822    
     98830   197.66         294.59017      137361.42     -807626.11     -9771.3106      0.36253209     0.057597535    29.09325       40.783189    
     98840   197.68         308.81415      132762.73     -807632.34     -9642.4703      0.36254951     0.056835348    29.01445       40.434569    
     98850   197.7          302.89884      134450        -807629.33     -9710.6913      0.36256678     0.057234735    29.020384      40.085949    
     98860   197.72         306.30757      130434.75     -807632.36     -9636.6078      0.36258391     0.056795404    29.052058      39.737325    
     98870   197.74         300.87313      134031.39     -807631.39     -9644.469       0.3626009      0.056839072    29.045186      39.388703    
     98880   197.76         306.96193      131070.49     -807634.36     -9582.7974      0.36261774     0.056472992    28.992583      39.040089    
     98890   197.78         308.85843      135201.97     -807630.33     -9722.16        0.36263445     0.057291639    29.094799      38.691462    
     98900   197.8          302.15513      133391.82     -807630.51     -9696.0674      0.362651       0.05713527     29.102599      38.342835    
     98910   197.82         308.14083      136586.42     -807630.19     -9734.0465      0.36266742     0.05735647     29.061321      37.994215    
     98920   197.84         296.88492      132950.25     -807631.12     -9664.275       0.36268369     0.056942797    29.044991      37.645597    
     98930   197.86         307.91887      135331.93     -807631.03     -9719.7919      0.36269982     0.05726736     29.045351      37.296981    
     98940   197.88         290.47275      132065.07     -807630.62     -9663.7703      0.36271581     0.056934781    29.102108      36.948358    
     98950   197.9          298.04106      133135.79     -807632.38     -9644.9591      0.36273165     0.056821472    29.057954      36.599741    
     98960   197.92         297.38774      132044.49     -807633.33     -9619.6061      0.36274735     0.056669656    29.082471      36.251123    
     98970   197.94         291.7825       134505.56     -807629.77     -9710.7728      0.36276291     0.057204272    29.133219      35.902499    
     98980   197.96         298.18044      133563.48     -807631.19     -9699.1429      0.36277832     0.057133334    29.024726      35.553889    
     98990   197.98         305.71322      134427.32     -807632.26     -9698.4279      0.36279359     0.057126718    29.026444      35.20528     
     99000   198            298.36583      134143.67     -807630.8      -9715.871       0.36280872     0.057227077    29.011546      34.856674    
     99010   198.02         298.51789      134501.04     -807630.15     -304.3526       0.3628237      0.057362606    29.082985      34.50806     
     99020   198.04         298.1252       133599.21     -807630.84     -303.69036      0.36283855     0.057235451    29.107314      34.159444    
     99030   198.06         289.55675      132968.08     -807632.09     -301.28038      0.36285324     0.056778951    29.085236      33.810832    
     99040   198.08         303.03367      133051.99     -807633.16     -302.07618      0.3628678      0.056926642    29.131915      33.462215    
     99050   198.1          290.09859      132651.2      -807630.6      -302.88382      0.36288221     0.057076576    29.144356      33.113598    
     99060   198.12         307.1191       133327.8      -807633.05     -302.79179      0.36289648     0.05705699     29.201947      32.764976    
     99070   198.14         311.33224      132426.69     -807633.94     -302.55828      0.36291061     0.057010769    29.20536       32.416355    
     99080   198.16         293.65044      135258.35     -807629.81     -304.18656      0.36292459     0.057315376    29.172639      32.067738    
     99090   198.18         288.86475      133701.34     -807629.37     -304.05488      0.36293843     0.05728838     29.084941      31.719132    
     99100   198.2          287.66151      135161.68     -807628.59     -304.6329       0.36295213     0.057395121    29.103078      31.370525    
     99110   198.22         298.14485      132897.82     -807632.68     -302.02658      0.36296568     0.056901947    29.096655      31.02192     
     99120   198.24         294.71392      134194.25     -807630.98     -303.18563      0.36297909     0.057118202    29.063522      30.673319    
     99130   198.26         293.19337      132184.2      -807632.53     -301.45928      0.36299236     0.056790892    29.147898      30.324711    
     99140   198.28         304.09283      133992.76     -807632.3      -303.06771      0.36300548     0.057091835    29.171949      29.976101    
     99150   198.3          308.20229      131157.99     -807635.08     -300.93951      0.36301846     0.056688897    29.14085       29.627495    
     99160   198.32         299.1859       134932.87     -807630.75     -303.88621      0.3630313      0.057241952    29.038665      29.278901    
     99170   198.34         293.27297      133603.3      -807630.47     -303.43432      0.36304399     0.057154834    29.06302       28.930305    
     99180   198.36         294.2275       135643.1      -807628.94     -305.01489      0.36305655     0.057450563    29.036091      28.581713    
     99190   198.38         296.22345      133245.77     -807630.93     -303.3004       0.36306895     0.057125681    29.014427      28.233124    
     99200   198.4          301.64237      135667.7      -807630.6      -304.21663      0.36308122     0.057296315    29.09999       27.884527    
     99210   198.42         298.92883      132898.47     -807631.74     -302.7408       0.36309334     0.057016451    29.154788      27.535926    
     99220   198.44         305.35656      133625.35     -807632.39     -302.8537       0.36310532     0.057035834    29.156273      27.187326    
     99230   198.46         308.13834      131241.54     -807634.55     -301.03157      0.36311715     0.056690827    29.175712      26.838726    
     99240   198.48         303.45606      133410.89     -807632.08     -302.75037      0.36312885     0.057012679    29.137855      26.49013     
     99250   198.5          304.94978      132324.66     -807631.69     -303.3857       0.3631404      0.057130505    29.119082      26.141537    
     99260   198.52         294.32661      134998.91     -807629.7      -303.75941      0.3631518      0.057199082    29.130694      25.792943    
     99270   198.54         296.76767      134605.41     -807631.18     -302.60763      0.36316306     0.05698043     29.094083      25.444355    
     99280   198.56         301.29485      135280.74     -807630.32     -304.06224      0.36317418     0.057252577    29.101919      25.095766    
     99290   198.58         305.26861      133297.35     -807630.94     -303.94074      0.36318516     0.057227969    29.161498      24.747173    
     99300   198.6          302.3903       134227.62     -807631.19     -303.16717      0.36319599     0.057080615    29.217488      24.398577    
     99310   198.62         301.5261       132133.71     -807632.89     -301.35415      0.36320668     0.056737587    29.196939      24.049984    
     99320   198.64         303.72835      133662.08     -807631.51     -302.95766      0.36321723     0.057037832    29.167587      23.701395    
     99330   198.66         296.89849      133154.62     -807629.58     -303.92356      0.36322763     0.057218045    29.145845      23.352808    
     99340   198.68         304.72408      133927.79     -807631.12     -303.36118      0.36323789     0.057110555    29.09419       23.004226    
     99350   198.7          299.22118      133391.15     -807630.97     -302.64043      0.36324801     0.056973279    29.077421      22.655647    
     99360   198.72         305.73802      135147.11     -807629.7      -304.67633      0.36325798     0.057354971    29.082648      22.307069    
     99370   198.74         300.97937      134494.08     -807628.87     -304.85229      0.36326781     0.057386542    29.126214      21.958488    
     99380   198.76         310.08357      134646.26     -807630.95     -303.88408      0.3632775      0.057202759    29.161688      21.609905    
     99390   198.78         309.80349      132960.64     -807633.15     -301.53287      0.36328704     0.056758678    29.127909      21.261326    
     99400   198.8          307.99081      133667.05     -807630.7      -303.66188      0.36329644     0.057157951    29.172175      20.912745    
     99410   198.82         302.09481      133089.32     -807630.55     -302.94956      0.3633057      0.057022419    29.169822      20.564165    
     99420   198.84         307.412        132977.08     -807632.66     -301.47393      0.36331481     0.056743247    29.051993      20.215595    
     99430   198.86         300.88444      132766.82     -807631.9      -301.28203      0.36332378     0.056705727    29.072314      19.867024    
     99440   198.88         306.18098      134044.59     -807629.92     -304.00011      0.36333261     0.057215919    29.085567      19.518453    
     99450   198.9          302.12465      134323.7      -807627.97     -305.2893       0.36334129     0.057457185    29.099925      19.169882    
     99460   198.92         312.4107       135043.84     -807630.75     -303.90934      0.36334983     0.057196125    29.097838      18.821312    
     99470   198.94         312.38641      134860.72     -807631.12     -303.55388      0.36335823     0.057127905    29.025096      18.472748    
     99480   198.96         298.26971      134632.7      -807627.93     -304.81034      0.36336648     0.057363064    29.137458      18.124178    
     99490   198.98         305.1233       134234.76     -807629.7      -303.97924      0.3633746      0.057205382    29.101564      17.775611    
     99500   199            305.68809      132375.97     -807632.4      -301.39762      0.36338256     0.056718306    29.125574      17.427043    
     99510   199.02         311.39557      133064.16     -807633.15     -9648.093       0.36339039     0.056736898    28.927804      17.078488    
     99520   199.04         295.79683      133118.67     -807629.13     -9712.0405      0.36339807     0.057111743    28.972619      16.729931    
     99530   199.06         305.89621      134626.04     -807629.82     -9735.5087      0.3634056      0.05724856     29.008331      16.381373    
     99540   199.08         316.01986      133256.98     -807632.61     -9695.7861      0.363413       0.057013815    28.990118      16.032817    
     99550   199.1          303.02689      135273.28     -807629.12     -9754.5043      0.36342025     0.05735795     29.015003      15.684259    
     99560   199.12         301.38399      134511.46     -807629.44     -9745.847       0.36342736     0.057305923    29.09166       15.335699    
     99570   199.14         300.47188      134059.25     -807629.57     -9743.5063      0.36343432     0.057291062    29.030987      14.987143    
     99580   199.16         305.80691      131787.06     -807633.65     -9644.8084      0.36344114     0.056709661    29.009324      14.638589    
     99590   199.18         298.86996      132907.71     -807632.07     -9671.9615      0.36344782     0.056868272    28.964578      14.290037    
     99600   199.2          301.88977      132137.28     -807631.73     -9705.5483      0.36345435     0.057064726    29.040396      13.941483    
     99610   199.22         300.44784      134437.94     -807631.01     -9729.4432      0.36346074     0.057204213    29.032324      13.59293     
     99620   199.24         302.81439      133576.04     -807632.02     -9716.1959      0.36346699     0.057125344    29.116199      13.244374    
     99630   199.26         296.09721      135408.45     -807629.15     -9784.9707      0.3634731      0.057528731    29.08835       12.89582     
     99640   199.28         305.09669      134110.42     -807630.51     -9790.1287      0.36347906     0.057558113    29.090743      12.547267    
     99650   199.3          291.55267      134936.26     -807629.53     -9766.0041      0.36348487     0.057415361    29.115405      12.198714    
     99660   199.32         294.25199      133167.07     -807632.98     -9673.3712      0.36349055     0.056869875    29.133764      11.850161    
     99670   199.34         286.83676      133938.04     -807631.7      -9686.5059      0.36349608     0.056946228    29.087357      11.501611    
     99680   199.36         290.15036      131942.83     -807632.5      -9680.6998      0.36350147     0.05691125     29.064849      11.153063    
     99690   199.38         287.85864      133178.99     -807632.16     -9682.2487      0.36350671     0.056919535    29.067581      10.804516    
     99700   199.4          289.70688      132689.8      -807632.55     -9683.2525      0.36351181     0.056924637    29.05517       10.45597     
     99710   199.42         284.08962      134934.67     -807629.32     -9761.4646      0.36351677     0.057383638    29.046476      10.107425    
     99720   199.44         302.74912      134572.25     -807631.3      -9784.9803      0.36352158     0.057521115    29.059522      9.7588812    
     99730   199.46         300.08992      135274.93     -807631.02     -9780.636       0.36352625     0.057494838    29.093072      9.4103367    
     99740   199.48         287.52298      134044.32     -807630.61     -9737.3848      0.36353078     0.057239876    29.060354      9.0617942    
     99750   199.5          298.94334      133213.65     -807632.99     -9713.2872      0.36353516     0.057097533    29.105468      8.7132512    
     99760   199.52         292.6882       132059.78     -807633.27     -9676.3598      0.3635394      0.0568798      29.062389      8.3647105    
     99770   199.54         297.82205      131698.02     -807634.57     -9656.6489      0.3635435      0.056763295    29.083304      8.0161701    
     99780   199.56         289.32165      131730.78     -807633.38     -9654.1037      0.36354745     0.056747717    29.024979      7.6676321    
     99790   199.58         301.41049      133773.92     -807632.63     -9730.6087      0.36355126     0.057196821    29.016491      7.3190952    
     99800   199.6          294.2491       134848.76     -807630.42     -9769.2247      0.36355493     0.057423228    29.012963      6.9705591    
     99810   199.62         305.67823      134740.99     -807631.12     -9791.8841      0.36355845     0.057555861    29.00953       6.6220239    
     99820   199.64         288.6537       134670.01     -807629.44     -9767.1751      0.36356183     0.05741009     29.07026       6.2734882    
     99830   199.66         291.52257      135113.17     -807629.88     -9761.1937      0.36356507     0.057374421    29.057948      5.9249536    
     99840   199.68         290.82641      133690.07     -807631.03     -9716.8664      0.36356816     0.057113388    29.089934      5.5764192    
     99850   199.7          299.39363      131931.84     -807633.9      -9655.6821      0.36357111     0.056753301    29.111522      5.2278855    
     99860   199.72         298.33266      132213.43     -807633.29     -9663.2358      0.36357392     0.056797261    29.04108       4.8793539    
     99870   199.74         299.62146      132676.82     -807632.22     -9696.3426      0.36357658     0.056991434    29.050535      4.5308231    
     99880   199.76         298.43538      134615.01     -807630.42     -9739.5141      0.3635791      0.057244783    29.023911      4.1822934    
     99890   199.78         304.16547      134767.64     -807631.19     -9734.188       0.36358148     0.057213105    28.975741      3.8337652    
     99900   199.8          301.78911      134982.35     -807629.4      -9771.1202      0.36358371     0.057429822    28.994417      3.4852375    
     99910   199.82         295.17516      135418.22     -807628.48     -9762.7842      0.3635858      0.057380498    29.074553      3.1367096    
     99920   199.84         305.4917       133799.8      -807630.33     -9740.6873      0.36358775     0.057250318    29.045783      2.7881829    
     99930   199.86         307.24916      132642.66     -807632.27     -9678.2834      0.36358955     0.05688326     29.058899      2.439657     
     99940   199.88         301.91355      133425.22     -807631.68     -9668.0123      0.36359121     0.056822633    29.104896      2.0911316    
     99950   199.9          298.86312      132965.72     -807630.09     -9701.0773      0.36359273     0.057016731    29.067258      1.7426074    
     99960   199.92         306.99458      133937.64     -807631.14     -9698.2287      0.3635941      0.056999774    29.064373      1.3940841    
     99970   199.94         301.75836      134239.57     -807629.86     -9713.3397      0.36359533     0.057088394    29.030759      1.0455619    
     99980   199.96         316.36168      134860.79     -807630.24     -9761.5655      0.36359641     0.057371661    28.985002      0.69704056   
     99990   199.98         307.72443      135198.79     -807628.75     -9770.1568      0.36359736     0.057422006    29.056929      0.34851984   
    100000   200            311.4886       135230.89     -807630.02     -9744.5742      0.36359816     0.057271523    29.138895      0            
Loop time of 3485.19 on 32 procs for 100000 steps with 1080 atoms

Performance: 4.958 ns/day, 4.841 hours/ns, 28.693 timesteps/s, 30.988 katom-step/s
62.2% CPU use with 32 MPI tasks x 1 OpenMP threads

MPI task timing breakdown:
Section |  min time  |  avg time  |  max time  |%varavg| %total
---------------------------------------------------------------
Pair    | 2560.3     | 2799.3     | 3093.1     | 250.0 | 80.32
Neigh   | 0.0016531  | 0.0017926  | 0.0020146  |   0.2 |  0.00
Comm    | 318.11     | 612.26     | 851.61     | 534.7 | 17.57
Output  | 2.3779     | 2.3861     | 2.3955     |   0.3 |  0.07
Modify  | 64.514     | 65.053     | 65.575     |   4.9 |  1.87
Other   |            | 6.171      |            |       |  0.18

Nlocal:          33.75 ave          41 max          25 min
Histogram: 1 3 2 5 4 2 7 1 2 5
Nghost:        1047.31 ave        1061 max        1020 min
Histogram: 1 0 1 1 3 7 5 2 4 8
Neighs:              0 ave           0 max           0 min
Histogram: 32 0 0 0 0 0 0 0 0 0
FullNghs:         5340 ave        6528 max        3931 min
Histogram: 1 3 2 4 5 3 5 2 3 4

Total # of neighbors = 170880
Ave neighs/atom = 158.22222
Neighbor list builds = 4
Dangerous builds = 0

Total wall time: 1:01:29
