
units		metal
atom_style	atomic

read_data ${STRUCTURE}.data
read_data BaTiO3-sc333.data
Reading data file ...
  orthogonal box = (0 0 0) to (11.898253 11.898253 12.912076)
  2 by 4 by 4 MPI processor grid
  reading atoms ...
  135 atoms
  read_data CPU = 0.058 seconds
replicate $L $L $L
replicate 2 $L $L
replicate 2 2 $L
replicate 2 2 2
Replication is creating a 2x2x2 = 8 times larger system...
  orthogonal box = (0 0 0) to (23.796507 23.796507 25.824152)
  2 by 4 by 4 MPI processor grid
  1080 atoms
  replicate CPU = 0.004 seconds

pair_style allegro
pair_coeff	* * ${MODEL}.pth Ba Ti O
pair_coeff	* * BaTiO3-E0.pth Ba Ti O
mass 1 137.3
mass 2 47.9
mass 3 15.9994

timestep 0.002
compute polarization all allegro polarization 3
compute allegro will evaluate the quantity polarization of length 3 (src/compute_allegro.cpp:53)
compute polarizability all allegro polarizability 9
compute allegro will evaluate the quantity polarizability of length 9 (src/compute_allegro.cpp:53)

thermo_style custom pe fmax fnorm spcpu cpuremain

variable efield equal 1e-2*36.36
fix born all addbornforce 0.0 0.0 ${efield}
fix born all addbornforce 0.0 0.0 0.3636

thermo 10
min_style fire
#minimize 0.0 1e-6 100 100
velocity all create ${TEMP} ${SEED} dist gaussian rot yes mom yes
velocity all create 290 ${SEED} dist gaussian rot yes mom yes
velocity all create 290 14547 dist gaussian rot yes mom yes
fix nvt all nvt temp ${TEMP} ${TEMP} $(100*dt)
fix nvt all nvt temp 290 ${TEMP} $(100*dt)
fix nvt all nvt temp 290 290 $(100*dt)
fix nvt all nvt temp 290 290 0.2000000000000000111
run 5000
Neighbor list info ...
  update: every = 1 steps, delay = 0 steps, check = yes
  max neighbors/atom: 2000, page size: 100000
  master list distance cutoff = 8
  ghost atom cutoff = 8
  binsize = 8, bins = 3 3 4
  1 neighbor lists, perpetual/occasional/extra = 1 0 0
  (1) pair allegro/kk, perpetual
      attributes: full, newton on, kokkos_device
      pair build: full/bin/kk/device
      stencil: full/bin/3d
      bin: kk/device
Per MPI rank memory allocation (min/avg/max) = 3.516 | 3.516 | 3.516 Mbytes
    PotEng          Fmax          Fnorm          S/CPU         CPULeft    
-807708.29      1.595271       37.043391      0              0            
-807647.26      3.5578957      45.26955       2.4544854      2033.0134    
-807638.04      2.5089719      35.026157      25.854349      1110.7785    
-807609.61      3.1788698      36.950552      25.866783      803.07811    
-807605.82      4.238718       49.947394      25.794614      649.16868    
-807568.04      3.6164696      40.736865      25.799127      556.66134    
-807604.43      3.4528594      38.554897      25.856726      494.78945    
-807647.47      3.5469808      33.657229      25.840068      450.5023     
-807685.53      2.2645211      33.157502      25.817067      417.21138    
-807668.79      2.8304232      34.108475      25.820815      391.22932    
-807656.37      3.1524283      33.544432      25.866996      370.33232    
-807662.97      2.3865919      26.370973      25.843899      353.17985    
-807630.49      2.673983       29.879678      25.827881      338.83141    
-807587.11      3.1428289      39.413828      25.866047      326.60942    
-807571.13      2.9892551      37.244523      25.875616      316.07327    
-807634.82      3.4186106      32.849635      25.863361      306.89631    
-807655.98      3.2851901      29.556201      25.850025      298.82417    
-807666.39      2.6504213      33.139168      25.846278      291.65779    
-807649.34      3.9510958      43.633056      25.865281      285.23707    
-807683.07      2.9155974      35.940757      25.852083      279.45651    
-807643.36      3.9795083      38.552167      25.843726      274.21833    
-807618.23      2.9267105      38.487641      25.871609      269.43266    
-807564.46      4.5973939      45.02536       25.875162      265.04576    
-807608.45      3.9525459      49.06139       25.865477      261.00972    
-807615.43      4.2526657      38.260103      25.850352      257.28229    
-807643.82      3.2591897      34.707189      25.863721      253.81831    
-807646.34      4.7128889      44.2957        25.887017      250.58471    
-807684.92      3.1294494      37.374375      25.844393      247.57317    
-807665.06      3.3037391      33.670306      25.780136      244.76536    
-807639.5       2.7032749      31.019445      25.884378      242.09908    
-807611.37      3.2367607      32.09195       25.894185      239.58249    
-807607.29      3.6404086      41.507552      25.8364        237.21643    
-807600.23      3.207459       34.830094      25.789223      234.9844     
-807611.48      3.0442163      31.960173      25.882777      232.84432    
-807648.37      2.9710645      27.99546       25.878871      230.80819    
-807676.07      2.5361866      30.555536      25.857947      228.87048    
-807680.06      2.5069535      31.057358      25.822016      227.02589    
-807646.64      4.4273578      37.25016       25.849521      225.2549     
-807653.55      2.672693       29.093604      25.870197      223.553      
-807622.31      3.4685184      32.987549      25.868851      221.9188     
-807603.95      3.9205495      42.416184      25.818855      220.35559    
-807571.97      3.39174        40.642153      25.869459      218.84126    
-807630.25      3.2471897      34.585474      25.885725      217.37798    
-807651.48      3.5699665      34.859196      25.869543      215.96736    
-807675.82      2.8850107      34.162398      25.833221      214.60892    
-807644.26      4.7941809      46.404097      25.88281       213.28616    
-807671.74      2.9534054      34.466204      25.877632      212.00487    
-807646.13      3.5752141      35.984382      25.855445      210.76485    
-807624.31      3.0985375      37.310266      25.845788      209.56175    
-807567.12      3.5333007      42.476746      25.885075      208.38656    
-807606.98      4.3393946      43.054533      25.886263      207.24276    
-807627.64      2.9914394      33.599932      25.824783      206.13677    
-807657.91      2.6967794      30.801374      25.886371      205.05048    
-807647.88      4.1602938      39.169787      25.886675      203.99057    
-807677.75      2.4790432      32.550852      25.863819      202.95843    
-807669.63      2.6724409      30.669528      25.809198      201.95638    
-807643.2       2.9538866      28.480455      25.859222      200.97033    
-807604.36      3.6021417      32.54014       25.887017      200.0021     
-807600.09      3.7223193      36.663229      25.876289      199.05514    
-807611.27      3.883812       36.951749      25.828226      198.13257    
-807623.24      3.098094       30.567108      25.878015      197.22237    
-807645.09      3.5212033      30.71764       25.87303       196.32989    
-807667.77      4.080117       32.885838      25.853278      195.45581    
-807679.2       3.0505375      34.260971      25.752778      194.60767    
-807646.71      4.5912974      37.714563      25.818333      193.76719    
-807636.94      2.9912409      33.156752      25.883666      192.93411    
-807613.12      4.0109044      36.394785      25.859512      192.11693    
-807605.84      4.1670902      44.944848      25.773022      191.321      
-807582.31      4.0239248      40.420854      25.822529      190.53233    
-807624.11      3.7001096      35.255545      25.887508      189.74923    
-807649.96      4.5363417      36.442214      25.865935      188.97944    
-807677.31      4.0097044      35.674398      25.822659      188.22437    
-807649.01      5.0637768      42.465175      25.855319      187.4766     
-807658.09      3.1068184      33.629882      25.869744      186.73747    
-807642.93      4.1509925      33.365629      25.860138      186.00869    
-807624.82      3.6300789      36.740739      25.833123      185.29132    
-807575.84      3.5837472      39.282551      25.846581      184.58152    
-807598.8       3.1840794      38.82449       25.876299      183.87766    
-807633.69      3.1935985      31.402666      25.847669      183.18426    
-807661.99      2.5895797      31.650601      25.86616       182.49715    
-807652.49      3.7591881      36.96776       25.890865      181.81561    
-807663.42      3.2032         34.409349      25.796424      181.14868    
-807668.04      3.2352536      31.626221      25.829675      180.48601    
-807642.49      3.1528428      31.678212      25.86808       179.8271     
-807602.88      2.8221727      35.600429      25.883035      179.17356    
-807589.03      4.1211456      38.066787      25.913361      178.52411    
-807612.97      3.808706       38.82565       25.858176      177.88474    
-807632.09      4.1666535      32.620924      25.860507      177.25102    
-807644.89      3.2173686      33.082011      25.891324      176.62076    
-807657.38      4.7919297      36.07548       25.902678      175.99521    
-807676.25      3.4106249      34.663125      25.823674      175.38035    
-807652.12      4.1651867      35.474489      25.83008       174.77006    
-807630.39      2.9456122      33.089824      25.862917      174.16245    
-807604.88      3.7915396      35.828172      25.8791        173.55853    
-807608.96      3.6527818      43.238326      25.883741      172.95894    
-807597.66      3.495161       37.051738      25.822775      172.36772    
-807625.1       3.7609261      33.812759      25.864571      171.77812    
-807647.64      3.7359635      35.141987      25.882614      171.19159    
-807675.14      2.660717       34.525608      25.877756      170.60944    
-807657.69      3.6259182      36.352273      25.823987      170.0345     
-807648.6       3.3970523      33.160699      25.905284      169.45846    
-807636.08      3.5591689      32.602965      25.881683      168.88757    
-807623.5       3.7658056      36.117458      25.896494      168.31943    
-807590.07      3.5685772      37.40028       25.878708      167.75585    
-807598.67      3.2159504      36.182169      25.907585      167.19404    
-807634.61      2.7708299      31.204087      25.879354      166.63716    
-807664.26      2.4526626      30.570682      25.906915      166.08197    
-807660.54      3.9212431      33.856148      25.845164      165.53333    
-807655.73      3.137154       34.568542      25.880972      164.98574    
-807661.22      2.4220808      30.50065       25.849666      164.44279    
-807640.44      3.3568233      30.372106      25.845901      163.90288    
-807608.26      3.0076575      34.767765      25.820154      163.36707    
-807584.63      3.5636075      37.42089       25.895084      162.83004    
-807615.93      3.579873       36.306687      25.85158       162.2979     
-807639.19      3.4850967      31.563154      25.857663      161.768      
-807653.37      2.9221359      31.697281      25.889405      161.239      
-807650.67      4.7645329      37.701375      25.901094      160.71189    
-807670.79      3.0682018      33.865529      25.847058      160.18983    
-807651.83      4.1320739      34.531476      25.84983       159.66993    
-807629.97      2.7598957      32.959486      25.879092      159.15086    
-807597         3.4922696      36.60824       25.890842      158.63345    
-807608.56      3.6805869      40.44851       25.856767      158.1198     
-807610.92      3.2768702      34.531347      25.824006      157.60975    
-807633.61      2.513792       31.545311      25.804115      157.10262    
-807645.33      4.0019439      34.344415      25.886508      156.59367    
-807669.33      2.5127184      33.726678      25.807142      156.09025    
-807660.46      3.1182973      34.204914      25.780382      155.58986    
-807646.27      3.172254       32.319456      25.810548      155.08991    
-807624.51      3.4592774      32.966732      25.8834        154.58856    
-807618.65      3.4861456      36.222182      25.904042      154.08809    
-807600.42      3.0084942      37.121495      25.803738      153.59366    
-807606.12      3.087468       34.540726      25.89088       153.09719    
-807632.58      3.0065299      31.2968        25.824336      152.60516    
-807659.27      2.529063       32.267554      25.836144      152.11423    
-807663.65      3.2860675      33.654095      25.835361      151.62487    
-807651.08      4.1540595      35.367309      25.862525      151.13593    
-807648.48      3.1986673      32.403938      25.859643      150.64861    
-807633.53      2.954254       32.82446       25.827406      150.16404    
-807611.42      3.013326       36.866032      25.823424      149.68103    
-807587.54      3.2440872      37.796982      25.876281      149.19735    
-807615.06      3.1110957      34.700748      25.88728       148.71463    
-807639.96      3.5737481      32.26126       25.849363      148.23473    
-807658.46      3.0577888      32.888098      25.794483      147.75821    
-807649.84      4.3558545      37.046525      25.852546      147.28076    
-807662.28      2.4734754      32.661855      25.870226      146.80392    
-807649.04      3.1363868      33.331618      25.872414      146.32824    
-807631.61      2.6870358      32.409178      25.830831      145.85529    
-807594.57      3.9870053      36.694246      25.90932       145.38069    
-807602.58      4.0150232      37.837372      25.888352      144.90803    
-807618.06      2.9837476      34.254408      25.894124      144.43633    
-807641.57      3.3881785      31.773731      25.87232       143.96653    
-807644.78      4.572386       35.118448      25.871086      143.49788    
-807662.81      2.672677       33.514118      25.853372      143.03091    
-807659.99      3.7825901      33.906928      25.802371      142.56672    
-807646.05      3.3998855      32.342742      25.782592      142.1042     
-807618.07      3.1320136      33.357324      25.879541      141.63941    
-807608.28      3.362612       35.868716      25.869707      141.17595    
-807605.54      3.5008336      37.499601      25.840719      140.71441    
-807618.47      2.7135888      33.146097      25.877109      140.25264    
-807633.98      3.1602794      32.24893       25.907435      139.79084    
-807655.97      3.4752235      32.379241      25.893792      139.33043    
-807664.79      3.0013216      33.185616      25.837799      138.8727     
-807653.61      3.295888       33.307918      25.83015       138.41608    
-807640.94      2.5795316      31.95538       25.913517      137.95774    
-807625.68      3.9046144      32.354601      25.917222      137.50017    
-807613.54      3.504855       36.934946      25.904782      137.04384    
-807598.74      3.6492333      36.537736      25.891816      136.58875    
-807617.43      2.7119137      33.615594      25.914661      136.13381    
-807642.22      3.4484342      31.90596       25.860073      135.6813     
-807661.52      2.4223262      32.567407      25.866417      135.22938    
-807654.21      3.6599907      34.439992      25.87528       134.77797    
-807652.78      2.9051069      32.652731      25.890027      134.3269     
-807644.83      2.836279       31.461909      25.869114      133.87718    
-807628.5       3.0100974      33.059896      25.87175       133.42812    
-807600.74      3.1183796      34.882964      25.839268      132.98068    
-807603.99      2.7648346      35.112161      25.901212      132.53221    
-807626.47      2.9309896      32.025255      25.892022      132.08471    
-807648.77      3.1183774      30.715085      25.90661       131.6375     
-807651.96      3.1850738      32.898137      25.867076      131.19205    
-807656.92      4.1577996      33.26183       25.90662       130.7462     
-807655.96      3.1904806      32.492473      25.872292      130.30192    
-807644.69      2.6674796      30.75431       25.855133      129.85873    
-807616.81      3.0349655      32.541552      25.905092      129.41486    
-807602.23      3.3522623      35.340356      25.900139      128.97175    
-807611.42      3.8433947      35.444934      25.8919        128.52947    
-807627.21      3.7592636      32.139245      25.862913      128.08853    
-807640.55      2.9043578      31.456941      25.870222      127.64799    
-807652.8       3.126791       32.425323      25.881931      127.20774    
-807661.66      3.2111591      32.365958      25.854059      126.76875    
-807652.57      3.3168145      32.304267      25.881112      126.32965    
-807635.45      3.5745159      31.444884      25.891919      125.89084    
-807615.62      3.5684756      33.123851      25.925613      125.45177    
-807612.12      3.1845243      35.568128      25.910895      125.0136     
-807607.08      3.0922457      35.079859      25.911416      124.57597    
-807623         3.3929903      33.256919      25.929745      124.13844    
-807640.22      3.2722691      33.977961      25.910398      123.70189    
-807659.74      3.1053508      33.241032      25.886419      123.26641    
-807653.63      3.6340765      34.574966      25.845332      122.83237    
-807647.54      2.8256279      33.1062        25.862792      122.39842    
-807633.62      3.5503131      31.950348      25.907201      121.96393    
-807623.84      2.882792       33.9285        25.859027      121.53101    
-807604.61      3.2181628      35.806929      25.845504      121.09885    
-807605.7       2.7714398      35.483949      25.870404      120.66659    
-807626.56      2.7185322      31.856945      25.880055      120.23456    
-807649.14      2.9955117      32.625416      25.888642      119.8028     
-807654.24      2.2801686      33.103241      25.79774       119.37345    
-807651.11      2.8600824      34.22965       25.825482      118.9439     
-807649.36      2.8669522      32.253605      25.818772      118.5149     
-807638.33      3.2827579      32.746923      25.818106      118.08632    
-807616.34      3.4375435      34.908717      25.838616      117.65771    
-807599.7       2.7831237      36.708298      25.886264      117.2285     
-807610.78      3.0879383      35.695359      25.906713      116.79929    
-807633.27      2.7771047      32.730058      25.862656      116.37138    
-807646.4       3.9213434      33.194098      25.872811      115.94365    
-807649.65      3.7253896      34.440997      25.902481      115.51571    
-807656.19      4.1337577      33.758792      25.816491      115.08987    
-807650.29      3.6494587      32.749574      25.845686      114.66381    
-807634.02      3.9634051      32.129673      25.842542      114.23817    
-807608.45      3.3484886      34.714926      25.885913      113.81205    
-807607.79      3.4753545      36.837419      25.916575      113.3857     
-807616.33      3.015953       34.744903      25.87875       112.96044    
-807632.06      3.4389201      32.581284      25.87175       112.53567    
-807641.65      3.9758274      33.908048      25.89175       112.11086    
-807657.32      2.9399245      33.474932      25.852191      111.68714    
-807655.97      3.7295876      33.828695      25.799553      111.26472    
-807646.04      3.676551       32.586763      25.846843      110.84174    
-807625.11      3.0150576      33.061506      25.84738       110.41907    
-807619.11      2.96829        33.871685      25.878848      109.99614    
-807608.15      3.8533939      36.319849      25.861549      109.57385    
-807615.57      4.0545002      33.922818      25.860844      109.15188    
-807629.83      3.5875954      32.786469      25.920798      108.72917    
-807651.17      2.6542404      32.185351      25.853531      108.30795    
-807656.87      3.4996285      33.693275      25.797006      107.888      
-807650.72      3.2034075      33.983868      25.829745      107.46777    
-807642.47      3.442569       32.476939      25.808836      107.04817    
-807632.7       3.1600957      32.39458       25.86452       106.62791    
-807616.39      3.8539725      34.915922      25.860867      106.20799    
-807604.07      3.1752403      35.178005      25.887818      105.78791    
-807617.38      3.1149854      33.338784      25.886409      105.36814    
-807638.1       2.5074725      32.211056      25.859606      104.94908    
-807651.42      2.7029602      33.04479       25.839725      104.53062    
-807650.22      3.9329847      34.769901      25.864385      104.11202    
-807652.17      2.7820792      33.07185       25.849862      103.69391    
-807645.66      3.0110049      32.380524      25.868123      103.27578    
-807630.88      3.5664846      33.135627      25.9103        102.85724    
-807608.26      3.4298323      35.125109      25.871657      102.43957    
-807609.06      2.8966239      35.40473       25.851459      102.02246    
-807621.84      2.8775255      33.745238      25.839334      101.60578    
-807639.46      2.9923902      32.779369      25.835077      101.18941    
-807644.27      3.3978572      34.152756      25.884898      100.77252    
-807653.73      3.0817667      34.142306      25.869343      100.35611    
-807652.53      3.164253       33.639227      25.901488      99.939466    
-807643.79      2.9319445      32.186974      25.880972      99.523361    
-807621.49      3.1908536      32.401665      25.885937      99.107419    
-807611.71      3.3149773      34.579683      25.893057      98.691608    
-807609.69      3.3523677      35.360276      25.837068      98.276833    
-807624.09      2.9823455      32.833166      25.835114      97.862302    
-807633.3       3.6374273      32.410394      25.85855       97.447653    
-807649.46      2.5625426      32.255885      25.860961      97.033187    
-807656.1       3.3469377      33.074167      25.840774      96.619217    
-807650.95      2.5540534      32.227572      25.831218      96.205587    
-807636.29      3.9027247      32.154353      25.88122       95.791474    
-807623.11      2.9781088      32.684782      25.882825      95.377551    
-807613.26      3.834432       35.869009      25.841931      94.964389    
-807610.19      2.9175136      34.299039      25.791142      94.552107    
-807619.17      3.7120258      33.572387      25.833809      94.139442    
-807640.5       2.8327369      31.396986      25.868174      93.726517    
-807652.59      3.215407       33.081041      25.862146      93.313868    
-807651.21      3.087198       33.522455      25.812129      92.902062    
-807644.91      3.3813758      33.511288      25.849932      92.48995     
-807637.66      2.9093838      32.094257      25.841931      92.078127    
-807626.95      2.5989625      32.758801      25.771315      91.667385    
-807607.14      3.4145072      34.799729      25.759218      91.256961    
-807609.83      3.1192436      35.195858      25.785582      90.846371    
-807625.53      3.2407352      32.541095      25.87261       90.43487     
-807644.37      2.9397807      32.327078      25.86465       90.023649    
-807647.69      3.365111       33.594093      25.867435      89.612572    
-807651.44      3.4419623      33.838357      25.892433      89.201372    
-807647.55      2.9157463      33.150095      25.872455      88.790589    
-807640.39      2.621569       31.739227      25.844692      88.38031     
-807617.27      2.8317376      33.572003      25.866398      87.969942    
-807609.92      2.9125439      34.422511      25.845126      87.559991    
-807614.18      2.8737244      34.288159      25.848401      87.150166    
-807632.46      3.4616645      31.489825      25.886498      86.740066    
-807639.74      2.9571382      31.605345      25.899754      86.329984    
-807651.49      3.3528611      32.133112      25.881907      85.92027     
-807653.89      2.6701257      32.173337      25.831035      85.511289    
-807647.43      3.490631       32.791867      25.810324      85.102692    
-807634.25      2.518763       31.505446      25.853297      84.693766    
-807616.49      3.4683012      33.535704      25.87124       84.284799    
-807613.64      3.0720233      34.451051      25.85164       83.876198    
-807617.3       2.8765892      33.74266       25.841889      83.467851    
-807630.15      2.7411332      31.893014      25.859372      83.059465    
-807643.35      3.0968723      32.386253      25.854091      82.651283    
-807654.61      2.9093747      33.73219       25.851225      82.243276    
-807650.55      3.4601344      34.20321       25.860801      81.835313    
-807645.37      3.1609478      32.642389      25.857238      81.42753     
-807629.92      3.7830857      33.272221      25.865963      81.0198      
-807621.63      2.6525252      34.003469      25.808886      80.612792    
-807610.36      2.889163       33.870627      25.843717      80.205563    
-807619.07      2.5813306      32.73602       25.875911      79.798149    
-807630.16      2.5960579      32.385922      25.892761      79.390707    
-807648.89      2.4414434      31.955846      25.886292      78.983469    
-807649.88      3.4023697      33.523372      25.863291      78.576593    
-807652.21      2.6410047      31.787113      25.837939      78.170095    
-807641.2       2.6467972      32.633775      25.863216      77.763482    
-807633.6       3.0629582      32.335731      25.886231      77.356782    
-807615.59      2.6865704      33.88985       25.864305      76.950421    
-807610.08      2.6901114      34.968766      25.836209      76.54445     
-807616.55      3.0802554      33.907201      25.854553      76.138431    
-807636.47      3.0489904      32.160894      25.831422      75.732749    
-807645.1       3.125633       33.04276       25.832494      75.327176    
-807650.1       3.9984443      33.143882      25.828594      74.921758    
-807649.68      3.0088081      33.228533      25.806109      74.516657    
-807644.78      3.1259089      32.03147       25.862721      74.111166    
-807628.48      3.5356103      32.272115      25.904796      73.705425    
-807611.98      2.9548466      34.574503      25.901933      73.299835    
-807611.64      3.9419039      35.217345      25.873694      72.89461     
-807621.79      2.9616489      33.20804       25.813656      72.490018    
-807634.97      2.9131933      32.459161      25.808947      72.085574    
-807644.86      2.8923781      32.487952      25.827145      71.681082    
-807652.14      2.5075196      33.224452      25.823949      71.276725    
-807649.49      2.9302137      33.595819      25.835971      70.872375    
-807641.01      3.0020563      32.282593      25.860839      70.467928    
-807623.95      2.8792021      33.255677      25.885702      70.063389    
-807614.78      2.8895983      34.813263      25.876575      69.659035    
-807611.37      3.0197182      35.686932      25.820899      69.255236    
-807622.05      2.8505591      33.97932       25.816695      68.851571    
-807634.03      2.8494978      32.500941      25.828086      68.447916    
-807648.09      3.2608714      33.139013      25.85446       68.044156    
-807650.03      3.0560632      34.334412      25.861376      67.640445    
-807648.09      3.0276965      33.233916      25.89175       67.236606    
-807636.98      3.0613281      32.581465      25.895566      66.832845    
-807625.57      2.5220294      33.090438      25.872834      66.429359    
-807614.18      2.8914273      34.352681      25.851271      66.026135    
-807613.58      2.851271       34.425543      25.853433      65.622993    
-807620.3       3.9766931      33.896547      25.847225      65.219993    
-807639.85      2.9727659      31.906428      25.859003      64.817004    
-807648.67      3.1161258      33.124027      25.841441      64.414237    
-807651.05      3.4159055      33.215935      25.855179      64.011466    
-807646.23      2.7877391      33.190848      25.875177      63.608648    
-807636.88      2.9766874      32.417054      25.921252      63.205606    
-807626.7       2.6915559      32.340589      25.900208      62.80281     
-807611.76      2.8889462      34.130568      25.875261      62.400281    
-807612.44      2.9289811      34.505815      25.897829      61.997693    
-807624.93      2.6050099      32.963315      25.892064      61.595239    
-807643.17      2.7268932      31.437534      25.867805      61.19304     
-807645.91      3.335699       33.227885      25.89514       60.790751    
-807650.43      3.2313241      33.976882      25.886273      60.388612    
-807648.08      3.7004787      33.060882      25.902186      59.986462    
-807637.99      3.2013816      32.289895      25.90736       59.58437     
-807620.43      3.578683       33.331002      25.899084      59.182423    
-807613.44      3.1274314      34.46115       25.916237      58.780458    
-807616.42      2.9956502      33.768123      25.909807      58.378624    
-807630.74      3.1039968      32.332277      25.89869       57.976948    
-807639.86      3.3855958      31.827763      25.926875      57.575189    
-807650.63      2.8708924      31.651987      25.918062      57.173572    
-807650.67      3.5871755      33.003254      25.867431      56.772347    
-807648.67      2.6580942      31.660034      25.861572      56.371238    
-807632.72      3.3149142      32.002945      25.915669      55.969892    
-807621.1       2.7411974      33.698039      25.920243      55.568606    
-807613.98      3.4220748      34.348621      25.912742      55.167449    
-807618.67      2.9110192      34.050755      25.887448      54.76652     
-807628.83      3.4125142      32.222041      25.850651      54.365879    
-807642.97      3.1657478      31.666306      25.870497      53.965203    
-807651.03      3.4529365      32.520057      25.859082      53.564667    
-807651.56      2.7122299      32.220678      25.863487      53.164183    
-807641.22      3.4290349      32.711964      25.891712      52.763622    
-807633.36      2.7075061      31.306109      25.903985      52.363073    
-807620.03      2.8330377      33.836398      25.913249      51.962553    
-807612.85      3.0823868      34.641044      25.897257      51.562197    
-807617.08      2.6695209      33.770681      25.90272       51.161888    
-807631.6       3.3646385      32.592328      25.909127      50.761624    
-807645.64      2.5354321      32.268257      25.869978      50.361635    
-807648.74      3.5579502      33.132805      25.894414      49.961594    
-807648.57      2.9023825      32.721572      25.848658      49.561856    
-807640.03      4.020472       32.881539      25.879657      49.162033    
-807631.78      3.5603676      33.205283      25.902251      48.762172    
-807614         3.6541828      34.81012       25.9177        48.362309    
-807613.05      3.7107519      35.044532      25.914234      47.962537    
-807618.29      3.7017117      33.952108      25.904749      47.562882    
-807634.56      3.2323792      32.943183      25.901755      47.163313    
-807644.01      3.7392986      32.984782      25.919127      46.763735    
-807649.03      3.1851728      33.966404      25.922777      46.364211    
-807647.18      2.9405728      33.918824      25.925608      45.964747    
-807641.85      3.6818423      32.575961      25.878848      45.565562    
-807627.67      3.2763449      33.192178      25.902818      45.166339    
-807615.23      2.6852221      34.792119      25.921745      44.7671      
-807612.29      3.4916009      34.575185      25.884434      44.368092    
-807622.39      3.6652533      33.404155      25.862992      43.96924     
-807633.61      2.9701894      32.535685      25.891689      43.57033     
-807643.67      3.07769        32.928522      25.887387      43.171502    
-807650.4       2.7749576      33.109923      25.877342      42.77278     
-807648.09      3.1567443      33.376689      25.864697      42.374172    
-807639.11      3.1742453      32.293088      25.881332      41.975558    
-807624.79      3.7646619      34.38428       25.889058      41.576975    
-807616.67      2.6615805      34.471568      25.889634      41.178452    
-807614.31      3.5829684      34.920227      25.854847      40.780126    
-807621.8       3.2826393      33.823135      25.859377      40.38184     
-807633.5       3.0924092      33.194353      25.892602      39.983487    
-807647.24      3.9985376      32.767424      25.90145       39.585162    
-807650.06      2.8736621      32.891709      25.883025      39.186965    
-807645.74      3.3568172      32.868667      25.881879      38.788832    
-807636.86      3.4409916      32.163445      25.892602      38.390718    
-807627.66      2.921667       33.367181      25.920511      37.992565    
-807617.12      3.288895       33.793174      25.887687      37.594587    
-807614.36      2.8766305      34.83344       25.890387      37.196658    
-807623.25      4.2987772      33.090216      25.863151      36.798879    
-807639.55      3.4860602      32.282548      25.875008      36.401114    
-807646.42      4.4072167      32.496741      25.874653      36.003406    
-807648.06      2.9722138      32.436064      25.827317      35.605908    
-807644.57      2.7897786      32.402832      25.857532      35.208363    
-807639.45      2.9294912      32.032736      25.892307      34.810759    
-807625.55      3.0053901      32.659574      25.890504      34.413216    
-807614.85      2.8823516      34.298056      25.897683      34.015705    
-807615.98      2.9148128      34.012539      25.901136      33.618238    
-807629.05      2.8148178      33.201651      25.911997      33.220794    
-807638.27      2.7226116      32.672978      25.936184      32.823333    
-807644.91      3.0601069      33.574783      25.906689      32.426015    
-807647.94      3.0539398      33.027715      25.913643      32.028731    
-807645.17      3.0332285      33.004139      25.908926      31.631515    
-807636.32      3.2872882      32.998413      25.911819      31.234344    
-807623.2       3.3621423      33.680938      25.911565      30.837227    
-807615.98      3.7029776      34.78154       25.920844      30.440138    
-807619.27      3.1277072      34.575737      25.883058      30.043203    
-807628.66      2.7137503      32.92385       25.887148      29.646307    
-807638.36      3.3376374      32.718791      25.900583      29.249426    
-807647.29      3.0443021      32.310555      25.871717      28.852669    
-807648.82      3.7691212      32.346744      25.857583      28.455996    
-807644.48      3.3948127      32.336986      25.913554      28.059231    
-807632.21      2.7051212      32.628243      25.861871      27.662642    
-807625.5       2.6435111      32.405395      25.924359      27.265949    
-807616.71      2.7094534      33.499922      25.889053      26.86939     
-807619.4       3.4412206      33.721601      25.900963      26.472852    
-807627.79      3.1816446      32.958003      25.899161      26.076365    
-807642.11      3.1040072      32.222388      25.910518      25.679901    
-807646.75      2.8150254      32.504669      25.897808      25.283513    
-807647.25      3.1541253      32.792901      25.875226      24.887221    
-807642.53      2.8339016      32.029523      25.895887      24.490929    
-807632.59      2.666211       32.61694       25.897541      24.094681    
-807623.04      2.5603503      33.251801      25.896871      23.698479    
-807617.63      3.1270354      34.137369      25.866424      23.302384    
-807620.34      3.3341232      33.623337      25.835405      22.906393    
-807631.8       2.9245796      32.584484      25.86569       22.510384    
-807640.55      4.0045487      33.126437      25.902914      22.114348    
-807646.65      3.0093327      33.090651      25.899845      21.718361    
-807644.9       2.8490745      32.964477      25.895878      21.322427    
-807641.71      3.7716874      32.480203      25.929005      20.926477    
-807631.49      2.5199552      32.56901       25.905516      20.530614    
-807619.63      2.6293196      33.862403      25.911179      20.134785    
-807616.28      3.1584069      34.186541      25.92738       19.738974    
-807623.01      3.0610028      32.480732      25.921161      19.343217    
-807632.1       2.982411       32.488515      25.89762       18.947542    
-807640.22      3.3114024      32.857203      25.8798        18.551936    
-807645         2.96927        33.067583      25.907287      18.156329    
-807644.82      3.4039775      33.701612      25.876807      17.76081     
-807639.8       3.5996016      32.690374      25.871846      17.365338    
-807626.53      3.1622528      33.339162      25.910935      16.969849    
-807619.78      3.934608       34.248095      25.901884      16.574415    
-807617.16      2.9320721      34.643152      25.878677      16.179053    
-807622.85      3.4293219      33.837485      25.864452      15.783748    
-807632.23      4.1280803      32.61472       25.929704      15.388398    
-807642.58      2.9640325      32.436756      25.916779      14.993107    
-807645.61      5.1006086      33.640015      25.89355       14.597883    
-807644.22      3.2650805      33.668725      25.856717      14.202741    
-807636.8       4.1697281      32.979261      25.838478      13.807656    
-807627.18      3.0994113      33.605106      25.850312      13.412593    
-807619.74      3.3384488      34.600976      25.849963      13.017565    
-807617.03      3.2770557      35.132093      25.890161      12.622531    
-807622.11      3.2550696      34.281766      25.876891      12.227547    
-807634.72      3.4727349      32.837255      25.913636      11.832565    
-807643.92      3.4243976      33.57202       25.879781      11.437653    
-807646.9       3.1262471      33.715848      25.851209      11.042802    
-807642.05      3.1510389      33.962641      25.846491      10.647989    
-807637.08      2.7277322      32.554714      25.857964      10.253199    
-807629.48      3.8651316      33.34609       25.884259      9.8584236    
-807618.22      3.1112334      34.008976      25.897887      9.463673     
-807617.13      3.4546905      34.5372        25.91935       9.0689431    
-807625.75      3.5769422      33.76989       25.897826      8.6742652    
-807638.54      2.8282624      32.486429      25.918791      8.2796093    
-807643.15      2.9633363      32.791595      25.915109      7.8849926    
-807645.96      3.1848838      33.142908      25.895761      7.4904235    
-807644.79      3.5221345      32.509851      25.861467      7.0959085    
-807638.74      2.6434114      32.128218      25.882176      6.701415     
-807626         2.6882474      33.1835        25.904231      6.3069443    
-807618.49      3.0609557      34.438794      25.92823       5.9124972    
-807620.51      3.3145016      34.232195      25.886533      5.5181042    
-807628.29      3.1193558      33.676743      25.926239      5.1237286    
-807635.92      3.5502395      33.626747      25.91988       4.7293908    
-807643.79      3.5463331      33.456167      25.909078      4.3350916    
-807647.66      3.5258171      33.396462      25.919913      3.940823     
-807642.93      2.7109663      33.4555        25.91305       3.5465909    
-807634.16      2.9151783      33.229779      25.908825      3.1523935    
-807625.54      2.9888208      33.438236      25.919866      2.7582273    
-807620.3       3.4351721      35.23565       25.909111      2.3640968    
-807621.54      3.0229186      34.678964      25.911568      1.969999     
-807629.18      3.9318953      33.448894      25.927732      1.5759322    
-807637.35      3.182742       32.524527      25.912895      1.1819004    
-807644.56      3.7002228      33.311476      25.880502      0.78790316   
-807645.46      2.7127767      32.912418      25.855984      0.39393716   
-807640.54      2.8642298      33.294118      25.859954      0            
Loop time of 196.961 on 32 procs for 5000 steps with 1080 atoms

Performance: 4.387 ns/day, 5.471 hours/ns, 25.386 timesteps/s, 27.417 katom-step/s
67.0% CPU use with 32 MPI tasks x 1 OpenMP threads

MPI task timing breakdown:
Section |  min time  |  avg time  |  max time  |%varavg| %total
---------------------------------------------------------------
Pair    | 104.95     | 145.88     | 192.56     | 307.4 | 74.07
Neigh   | 0          | 0          | 0          |   0.0 |  0.00
Comm    | 2.0965     | 48.758     | 89.682     | 531.7 | 24.76
Output  | 0.029617   | 0.030869   | 0.031988   |   0.3 |  0.02
Modify  | 1.9382     | 1.9637     | 1.9903     |   1.2 |  1.00
Other   |            | 0.3241     |            |       |  0.16

Nlocal:          33.75 ave          48 max          21 min
Histogram: 8 8 0 0 0 0 0 8 0 8
Nghost:        1106.25 ave        1119 max        1092 min
Histogram: 8 0 8 0 0 0 0 0 8 8
Neighs:              0 ave           0 max           0 min
Histogram: 32 0 0 0 0 0 0 0 0 0
FullNghs:       5494.5 ave        7896 max        3378 min
Histogram: 8 8 0 0 0 0 0 8 0 8

Total # of neighbors = 175824
Ave neighs/atom = 162.8
Neighbor list builds = 0
Dangerous builds = 0

reset_timestep 0


variable interval equal 1000
thermo 10

variable nintervals equal $(v_PERIOD/v_interval)
variable nintervals equal 100
variable efield equal 1e-2*36.36*cos((step/${PERIOD})*2*3.14)
variable efield equal 1e-2*36.36*cos((step/100000)*2*3.14)
fix born all addbornforce 0.0 0.0 v_efield

variable Px equal f_born[1]+c_polarization[1]
variable Py equal f_born[2]+c_polarization[2]
variable Pz equal (f_born[3]+c_polarization[3])/vol
variable pe equal pe

fix aveP all ave/time 1 $(v_interval/2) ${interval} v_efield v_Pz v_pe f_born file Pz.${MODEL}.${STRUCTURE}.${TEMP}.$L.${ITER}
fix aveP all ave/time 1 500 ${interval} v_efield v_Pz v_pe f_born file Pz.${MODEL}.${STRUCTURE}.${TEMP}.$L.${ITER}
fix aveP all ave/time 1 500 1000 v_efield v_Pz v_pe f_born file Pz.${MODEL}.${STRUCTURE}.${TEMP}.$L.${ITER}
fix aveP all ave/time 1 500 1000 v_efield v_Pz v_pe f_born file Pz.BaTiO3-E0.${STRUCTURE}.${TEMP}.$L.${ITER}
fix aveP all ave/time 1 500 1000 v_efield v_Pz v_pe f_born file Pz.BaTiO3-E0.BaTiO3-sc333.${TEMP}.$L.${ITER}
fix aveP all ave/time 1 500 1000 v_efield v_Pz v_pe f_born file Pz.BaTiO3-E0.BaTiO3-sc333.290.$L.${ITER}
fix aveP all ave/time 1 500 1000 v_efield v_Pz v_pe f_born file Pz.BaTiO3-E0.BaTiO3-sc333.290.2.${ITER}
fix aveP all ave/time 1 500 1000 v_efield v_Pz v_pe f_born file Pz.BaTiO3-E0.BaTiO3-sc333.290.2.7

thermo_style custom step time temp press pe f_born v_efield v_Pz spcpu cpuremain

# dump 4a all custom 1000 dump.hyst.${MODEL}.${STRUCTURE}.${TEMP}.$L.${ITER}.bin id type xu yu zu fx fy fz
# dump_modify 4a sort id

fix nvt all nvt temp ${TEMP} ${TEMP} $(100*dt)
fix nvt all nvt temp 290 ${TEMP} $(100*dt)
fix nvt all nvt temp 290 290 $(100*dt)
fix nvt all nvt temp 290 290 0.2000000000000000111

run $(v_PERIOD)
run 100000
WARNING: non-constant efield is experimental, strongly distrust scalar/vector output (src/fix_addbornforce.cpp:193)
Per MPI rank memory allocation (min/avg/max) = 3.516 | 3.516 | 3.516 Mbytes
   Step          Time           Temp          Press          PotEng         f_born        v_efield         v_Pz          S/CPU         CPULeft    
         0   0              287.73832      126139.34     -807640.54     -296.43768      0.3636         0.055751562    0              0            
        10   0.02           293.92636      134178.63     -807631.99     -305.82352      0.36359993     0.057516786    28.79826       3472.1043    
        20   0.04           297.80817      138423.76     -807627.58     -310.81576      0.36359971     0.05845572     28.868191      3467.5447    
        30   0.06           275.78021      143856.91     -807618.82     -316.53614      0.36359935     0.059531621    28.885424      3465.1018    
        40   0.08           283.5336       141434.67     -807621.67     -314.80441      0.36359885     0.059206013    28.898191      3463.3264    
        50   0.1            290.82895      136330.91     -807628.4      -309.01503      0.36359821     0.058117294    28.890326      3462.3111    
        60   0.12           285.6246       127683.99     -807639.24     -297.42872      0.36359742     0.055938346    28.882679      3461.6714    
        70   0.14           279.37175      124714.21     -807643.95     -291.69825      0.36359649     0.054860741    28.920243      3460.4735    
        80   0.16           278.49995      122885.51     -807643.83     -291.71581      0.36359541     0.054864204    28.88916       3459.9536    
        90   0.18           286.78458      128030.82     -807639.39     -297.22418      0.36359419     0.055900375    28.878043      3459.6201    
       100   0.2            296.99563      133466.05     -807633.94     -304.07878      0.36359283     0.057189766    28.906242      3458.9464    
       110   0.22           291.15885      140376.02     -807624.75     -312.36192      0.36359132     0.058747865    28.881677      3458.5997    
       120   0.24           287.29963      143636.4      -807619.54     -316.96903      0.36358968     0.059614624    28.881438      3458.2557    
       130   0.26           282.81713      141387.83     -807621.88     -313.86228      0.36358788     0.059030605    28.830907      3458.377     
       140   0.28           289.8008       135034.02     -807630.73     -305.7615       0.36358595     0.057507334    28.825092      3458.4809    
       150   0.3            293.29395      128399.96     -807639.69     -297.09301      0.36358387     0.055877291    28.805497      3458.683     
       160   0.32           289.35114      123612.03     -807643.08     -292.9438       0.36358165     0.055097244    28.830727      3458.6264    
       170   0.34           280.26764      124037.2      -807642        -292.51533      0.36357928     0.055017016    28.860894      3458.3225    
       180   0.36           298.90031      128621.8      -807640.43     -296.41877      0.36357677     0.055751569    28.827396      3458.2374    
       190   0.38           301.68746      134817.46     -807631.17     -305.83936      0.36357412     0.057523848    28.847096      3458.0005    
       200   0.4            299.33683      141870.1      -807621.48     -314.98484      0.36357132     0.059244434    28.899113      3457.441     
       210   0.42           287.86423      143917.55     -807618.93     -315.68056      0.36356838     0.059375769    28.847532      3457.1956    
       220   0.44           292.85174      140219.98     -807623.11     -311.82508      0.3635653      0.058651096    28.798214      3457.2107    
       230   0.46           300.98444      133315.45     -807632.16     -303.70448      0.36356207     0.057124202    28.769594      3457.3439    
       240   0.48           302.66547      128541.87     -807636.8      -298.99097      0.3635587      0.056238153    28.811559      3457.2264    
       250   0.5            283.61346      124088.41     -807641.36     -291.57692      0.36355519     0.05484415     28.871294      3456.8042    
       260   0.52           294.46592      126014.84     -807643.08     -291.1451       0.36355153     0.054763479    28.861418      3456.4333    
       270   0.54           306.70431      128406.55     -807637.8      -298.09913      0.36354773     0.056072095    28.862512      3456.0594    
       280   0.56           312.42016      135753.46     -807627.56     -309.08804      0.36354379     0.058139727    28.892366      3455.5598    
       290   0.58           299.29564      140516.38     -807621.73     -313.08485      0.3635397      0.058892192    28.877297      3455.133     
       300   0.6            291.14869      142944.87     -807619.98     -313.52655      0.36353547     0.058975963    28.835564      3454.8782    
       310   0.62           308.63421      139083.99     -807625.26     -310.77339      0.3635311      0.058458784    28.855404      3454.5408    
       320   0.64           304.18824      134106.39     -807629.54     -305.93779      0.36352658     0.057549886    28.959387      3453.815     
       330   0.66           307.95572      127559.43     -807639.33     -296.6674       0.36352192     0.05580675     28.900105      3453.3266    
       340   0.68           281.5534       124788.18     -807641.96     -290.37965      0.36351712     0.054624669    28.828916      3453.0967    
       350   0.7            293.40236      126372.01     -807641        -293.15273      0.36351217     0.055147077    28.832312      3452.8484    
       360   0.72           301.08546      129955.93     -807633.79     -301.64174      0.36350708     0.056744802    28.888344      3452.4086    
       370   0.74           315.87537      136732.83     -807629.15     -308.43179      0.36350185     0.058022979    28.876616      3452.0118    
       380   0.76           296.37916      140293.76     -807623.86     -311.24498      0.36349647     0.058553071    28.848038      3451.7074    
       390   0.78           301.25399      142947.23     -807621.21     -314.6933       0.36349095     0.059202687    28.846259      3451.4064    
       400   0.8            299.40515      137991.93     -807624.77     -311.17116      0.36348529     0.058540984    28.874636      3451.0183    
       410   0.82           308.69791      133410.79     -807633.14     -304.12271      0.36347948     0.057215865    28.835117      3450.7474    
       420   0.84           291.89552      125539.7      -807641.81     -293.32109      0.36347353     0.055184615    28.804621      3450.5601    
       430   0.86           282.2489       126446.82     -807640.77     -293.08528      0.36346744     0.055141176    28.827854      3450.3005    
       440   0.88           285.35297      124688.63     -807639.33     -295.24989      0.3634612      0.055549379    28.840716      3450.0019    
       450   0.9            295.42147      132947.42     -807634.15     -301.86252      0.36345482     0.0567945      28.826235      3449.7398    
       460   0.92           291.44193      135803.35     -807629.42     -306.27733      0.3634483      0.057626167    28.834815      3449.4515    
       470   0.94           290.93762      143385.85     -807620.88     -314.68631      0.36344163     0.059209405    28.88561       3449.0317    
       480   0.96           299.81184      140170.81     -807623.46     -313.58469      0.36343482     0.059003237    28.849473      3448.705     
       490   0.98           297.29517      138472.82     -807627.04     -309.60502      0.36342786     0.058255547    28.861761      3448.3472    
       500   1              301.95384      129578.88     -807637.68     -299.74637      0.36342077     0.056401637    28.88427       3447.9363    
       510   1.02           289.42463      127706.27     -807639.37     -9481.3403      0.36341353     0.055752736    28.770993      3447.7938    
       520   1.04           283.98981      123646.32     -807642.2      -9370.7282      0.36340614     0.055103428    28.713619      3447.7763    
       530   1.06           280.14877      128232.85     -807638.64     -9466.0006      0.36339862     0.055664819    28.761382      3447.6378    
       540   1.08           285.90767      130905.04     -807634.54     -9627.9003      0.36339095     0.056618065    28.776012      3447.459     
       550   1.1            300.63167      138907.27     -807627.22     -9929.0803      0.36338313     0.058390447    28.784036      3447.2565    
       560   1.12           285.48484      141338.79     -807621.14     -10059.622      0.36337518     0.059159426    28.81708       3446.9782    
       570   1.14           297.69418      140882.05     -807623.75     -10028.719      0.36336707     0.058979001    28.8165        3446.6986    
       580   1.16           300.62747      135804.69     -807631.1      -9808.5336      0.36335883     0.057685399    28.799419      3446.4519    
       590   1.18           297.03178      130658.02     -807635.95     -9638.8063      0.36335044     0.056688517    28.767554      3446.2667    
       600   1.2            281.2963       125620.7      -807639.66     -9449.8531      0.36334191     0.055578535    28.788897      3446.0334    
       610   1.22           274.61077      125223.42     -807642.4      -9331.9749      0.36333324     0.054886554    28.733683      3445.9051    
       620   1.24           278.10538      127918.51     -807639.53     -9440.8646      0.36332442     0.055528343    28.76734       3445.7044    
       630   1.26           302.57042      132496.87     -807634.78     -9704.5644      0.36331546     0.057080754    28.793969      3445.4484    
       640   1.28           289.42893      139081.61     -807625.34     -9949.8546      0.36330636     0.05852498     28.823217      3445.1348    
       650   1.3            295.94113      140501.83     -807624.37     -10010.023      0.36329711     0.058880387    28.81523       3444.8348    
       660   1.32           288.83886      140385.81     -807624.21     -9984.2806      0.36328772     0.058730486    28.74151       3444.6674    
       670   1.34           296.44398      135443.48     -807629.93     -9837.9817      0.36327819     0.057871431    28.753308      3444.4735    
       680   1.36           286.31714      130966.54     -807634.24     -9653.3416      0.36326851     0.056786808    28.740754      3444.2972    
       690   1.38           280.13183      126021.9      -807641.78     -9385.7119      0.36325869     0.05521394     28.703241      3444.1813    
       700   1.4            269.14586      126815.39     -807641.28     -9351.0872      0.36324873     0.05501176     28.731786      3444.0099    
       710   1.42           298.17229      126766.69     -807640.96     -9494.0013      0.36323863     0.055854067    28.765779      3443.7757    
       720   1.44           300.77582      134332.91     -807632.63     -9771.489       0.36322838     0.057488174    28.804772      3443.4737    
       730   1.46           306.71221      136989.19     -807629.7      -9893.747       0.36321798     0.058209115    28.833834      3443.1228    
       740   1.48           284.53383      141812.91     -807623.14     -10004.803      0.36320745     0.058864211    28.804621      3442.8191    
       750   1.5            292.60432      138938.32     -807625.04     -9983.4843      0.36319677     0.058740509    28.776995      3442.5585    
       760   1.52           290.8358       135942.65     -807629.26     -9839.881       0.36318595     0.057897306    28.806453      3442.2491    
       770   1.54           285.76969      128985.89     -807638.07     -9535.9383      0.36317498     0.056110618    28.742347      3442.0385    
       780   1.56           283.41225      126027.78     -807641.68     -9407.2666      0.36316387     0.055355191    28.735851      3441.8345    
       790   1.58           277.25037      124943.17     -807641.79     -9378.9238      0.36315262     0.055190124    28.725849      3441.642     
       800   1.6            291.96827      129054.34     -807638.26     -9556.5534      0.36314122     0.056237147    28.795637      3441.3409    
       810   1.62           297.10615      133079.7      -807633.46     -9735.0025      0.36312968     0.057289081    28.780339      3441.0614    
       820   1.64           290.2853       138769.51     -807626.45     -9928.6552      0.363118       0.058430579    28.799598      3440.7521    
       830   1.66           291.79269      141034.38     -807623.73     -10022.821      0.36310618     0.058986672    28.811786      3440.4243    
       840   1.68           283.57196      139386.34     -807624.1      -9973.4724      0.36309421     0.058698176    28.793465      3440.1221    
       850   1.7            293.80358      134212.79     -807632.8      -9739.2315      0.3630821      0.05732148     28.734294      3439.9024    
       860   1.72           290.13732      128397.56     -807639.08     -9519.6718      0.36306984     0.056031125    28.721164      3439.6979    
       870   1.74           287.24676      125211.98     -807641.57     -9423.2452      0.36305745     0.055465468    28.715848      3439.4975    
       880   1.76           276.99757      126294.83     -807640.94     -9398.3939      0.3630449      0.055321104    28.727007      3439.2785    
       890   1.78           286.89669      130599.26     -807637.12     -9562.6227      0.36303222     0.056289759    28.706855      3439.0838    
       900   1.8            294.83757      134912.94     -807631.49     -9778.8658      0.36301939     0.057564694    28.706481      3438.8862    
       910   1.82           291.44388      140355.59     -807624.58     -9981.7457      0.36300642     0.058761075    28.769866      3438.6017    
       920   1.84           286.08539      141467.23     -807622.6      -10016.68       0.36299331     0.058968859    28.771409      3438.3138    
       930   1.86           289.75751      139062.04     -807626.28     -9911.6766      0.36298005     0.058352827    28.739012      3438.0664    
       940   1.88           299.00104      132747.81     -807633.68     -9712.1965      0.36296665     0.057180543    28.775642      3437.7702    
       950   1.9            288.69393      128160.98     -807638.33     -9512.3514      0.36295311     0.056006045    28.760435      3437.492     
       960   1.92           284.65694      125785.01     -807642.05     -9370.414       0.36293942     0.055172438    28.717034      3437.2666    
       970   1.94           284.9674       126118.32     -807641        -9399.8243      0.36292559     0.055347713    28.766502      3436.9776    
       980   1.96           292.64534      130025.45     -807636.26     -9582.8398      0.36291162     0.056427511    28.752586      3436.7043    
       990   1.98           300.2209       136124.78     -807628.81     -9851.6732      0.3628975      0.058012764    28.756651      3436.4247    
      1000   2              296.24183      139784.61     -807623.81     -9988.9853      0.36288325     0.058823654    28.602794      3436.3288    
      1010   2.02           290.01039      141767.02     -807622.64     -312.25433      0.36286884     0.058844558    28.787676      3436.0079    
      1020   2.04           291.28984      137924.68     -807625.96     -308.95575      0.3628543      0.058225271    28.823339      3435.6447    
      1030   2.06           304.35583      133369.36     -807633.44     -303.12176      0.36283961     0.057128121    28.858672      3435.241     
      1040   2.08           295.54847      127208.07     -807639.9      -295.32175      0.36282478     0.055660359    28.834989      3434.8656    
      1050   2.1            280.03943      126874.55     -807639.82     -293.01283      0.3628098      0.055227469    28.815955      3434.5122    
      1060   2.12           288.21071      126141.04     -807640.1      -293.8564       0.36279469     0.055388774    28.841535      3434.1303    
      1070   2.14           313.74291      132217.86     -807635.76     -301.56666      0.36277943     0.056844467    28.806511      3433.7879    
      1080   2.16           297.50515      136033.51     -807627.42     -307.70004      0.36276402     0.058003054    28.731659      3433.5284    
      1090   2.18           288.79612      142545.43     -807621.36     -312.34717      0.36274848     0.058881585    28.758881      3433.2373    
      1100   2.2            300.34602      139227.5      -807624.56     -310.80094      0.36273279     0.058592635    28.764479      3432.939     
      1110   2.22           300.02715      138375.7      -807626.43     -308.76083      0.36271695     0.058210571    28.804361      3432.597     
      1120   2.24           302.19466      130620.02     -807634.35     -301.12997      0.36270098     0.056774429    28.747379      3432.3157    
      1130   2.26           293.82298      127925.58     -807638.91     -295.30292      0.36268486     0.055678282    28.732184      3432.0493    
      1140   2.28           290.47097      124420.95     -807642.83     -290.97613      0.3626686      0.054864942    28.797194      3431.7133    
      1150   2.3            288.1567       129250.52     -807637.08     -296.3479       0.36265219     0.055880343    28.824302      3431.3491    
      1160   2.32           310.62317      130656.44     -807635.62     -301.11518      0.36263564     0.056781868    28.895503      3430.9123    
      1170   2.34           300.42013      138237.94     -807626.31     -309.02638      0.36261895     0.05827638     28.828324      3430.5452    
      1180   2.36           288.15967      140356.82     -807622.74     -311.00276      0.36260212     0.058651811    28.824621      3430.1821    
      1190   2.38           297.20868      140276.34     -807623.95     -311.13288      0.36258514     0.058679097    28.809235      3429.8348    
      1200   2.4            299.63575      136311.7      -807628.68     -306.88056      0.36256802     0.057879851    28.841715      3429.4552    
      1210   2.42           293.64866      131004.52     -807634.93     -300.0144       0.36255076     0.056587538    28.822904      3429.0946    
      1220   2.44           286.09531      127321.24     -807639.47     -294.52338      0.36253335     0.05555451     28.808806      3428.7481    
      1230   2.46           281.50757      126008        -807641.05     -292.58619      0.3625158      0.055191779    28.769669      3428.4394    
      1240   2.48           280.10918      129452.03     -807636.53     -297.1693       0.36249811     0.056059047    28.769831      3428.13      
      1250   2.5            295.69191      132009.06     -807634.04     -302.21133      0.36248028     0.057012998    28.803526      3427.7878    
      1260   2.52           290.56135      138004.88     -807626.85     -308.88753      0.3624623      0.058275372    28.832597      3427.4181    
      1270   2.54           292.88313      138681.24     -807625.74     -310.66912      0.36244418     0.05861442     28.820763      3427.0598    
      1280   2.56           286.305        139970.98     -807624.62     -311.00259      0.36242592     0.058680293    28.845515      3426.6788    
      1290   2.58           292.74603      134348.44     -807631.81     -305.00718      0.36240751     0.057551996    28.890681      3426.2568    
      1300   2.6            289.00308      130814.25     -807637        -299.38546      0.36238896     0.056494122    28.920407      3425.809     
      1310   2.62           273.68459      126138        -807640.11     -294.27143      0.36237027     0.055531967    28.833892      3425.4409    
      1320   2.64           271.83827      126675.25     -807640.05     -294.1993       0.36235143     0.055521242    28.824476      3425.0815    
      1330   2.66           281.4673       128869.2      -807638.19     -297.47493      0.36233245     0.056142358    28.840559      3424.7081    
      1340   2.68           295.20375      133821.67     -807634.14     -303.4853       0.36231333     0.057279718    28.852676      3424.3242    
      1350   2.7            280.75226      138124.83     -807627.04     -308.6792       0.36229407     0.058263111    28.815409      3423.9738    
      1360   2.72           286.99158      140117.55     -807624.73     -311.79947      0.36227466     0.058855213    28.77341       3423.66      
      1370   2.74           291.89064      137510.96     -807628.57     -308.68427      0.36225511     0.058270333    28.79482       3423.3272    
      1380   2.76           280.13328      134544.13     -807631.37     -304.16975      0.36223542     0.057421247    28.760908      3423.0235    
      1390   2.78           286.09218      128628.16     -807638.15     -298.16017      0.36221558     0.056289841    28.756605      3422.7227    
      1400   2.8            273.22767      126519.23     -807640.01     -294.40339      0.3621956      0.05558366     28.762572      3422.4163    
      1410   2.82           275.07176      126540.45     -807641.08     -293.54562      0.36217548     0.055424791    28.811693      3422.0678    
      1420   2.84           290.99421      129437.22     -807638.52     -298.25173      0.36215522     0.056316511    28.807635      3421.7227    
      1430   2.86           286.48223      133899.42     -807631.67     -304.41508      0.36213481     0.057483526    28.80873       3421.3767    
      1440   2.88           288.24741      138632.6      -807627.06     -309.1534       0.36211426     0.058381589    28.841303      3421.0039    
      1450   2.9            274.33915      139207.73     -807623.85     -310.2952       0.36209357     0.058600559    28.837312      3420.6347    
      1460   2.92           288.86841      138295.69     -807627.64     -308.43029      0.36207273     0.058251716    28.842296      3420.2617    
      1470   2.94           291.871        133266.1      -807632.84     -303.5138       0.36205176     0.057326483    28.812812      3419.9129    
      1480   2.96           287.30862      129405.84     -807637.87     -297.63656      0.36203064     0.056219693    28.787508      3419.5844    
      1490   2.98           278.01659      126645.02     -807641.06     -292.98583      0.36200937     0.05534448     28.757362      3419.2796    
      1500   3              284.75694      126896.17     -807640.8      -294.00717      0.36198796     0.055540695    28.761908      3418.9708    
      1510   3.02           295.3218       130545.31     -807636.59     -9584.8722      0.36196642     0.056586859    28.750103      3418.6708    
      1520   3.04           287.37093      135352.93     -807630.76     -9732.4119      0.36194472     0.057461343    28.754636      3418.3665    
      1530   3.06           289.47082      139339.17     -807626.26     -9879.8073      0.36192289     0.058335103    28.740466      3418.0727    
      1540   3.08           286.4762       139201.51     -807625.14     -9898.7229      0.36190091     0.058450338    28.706952      3417.8042    
      1550   3.1            289.69906      137735.57     -807627.12     -9843.6937      0.36187879     0.058128953    28.681076      3417.5547    
      1560   3.12           298.9549       131977.61     -807634.29     -9652.9192      0.36185653     0.057005899    28.728656      3417.2674    
      1570   3.14           296.21912      129422.84     -807639.03     -9481.413       0.36183412     0.055996526    28.750444      3416.9628    
      1580   3.16           283.14499      126483.19     -807640.71     -9368.0372      0.36181157     0.055330385    28.76734       3416.6449    
      1590   3.18           289.81669      128403.37     -807638.53     -9462.0956      0.36178888     0.055889427    28.780454      3416.3169    
      1600   3.2            293.41826      130343.95     -807635.58     -9572.2487      0.36176605     0.056543633    28.770744      3415.9958    
      1610   3.22           290.22653      136212.57     -807628.37     -9785.7546      0.36174307     0.057808491    28.729382      3415.7049    
      1620   3.24           288.42378      138213.91     -807625.15     -9880.4742      0.36171995     0.05837177     28.724829      3415.4168    
      1630   3.26           300.62158      139835.92     -807625.25     -9928.3658      0.36169669     0.058658476    28.737524      3415.1185    
      1640   3.28           298.26777      135557.64     -807629.3      -9787.8412      0.36167329     0.057831974    28.729053      3414.8259    
      1650   3.3            290.98801      133797.16     -807632.18     -9659.7855      0.36164974     0.057079067    28.673098      3414.573     
      1660   3.32           287.16797      128480.16     -807637.62     -9469.776       0.36162605     0.055959978    28.709756      3414.2927    
      1670   3.34           302.32634      127326.95     -807640.72     -9434.8006      0.36160222     0.055756972    28.709796      3414.0114    
      1680   3.36           281.15752      128398.64     -807637.93     -9430.1387      0.36157824     0.055733117    28.753798      3413.6982    
      1690   3.38           291.58176      132090.35     -807634.71     -9580.1731      0.36155413     0.056623612    28.694509      3413.4264    
      1700   3.4            292.18117      135854.48     -807629.61     -9746.4831      0.36152987     0.057610453    28.651261      3413.1841    
      1710   3.42           305.82848      137781.65     -807627.71     -9866.6575      0.36150546     0.058324729    28.686466      3412.9159    
      1720   3.44           293.62912      138214.14     -807626.04     -9866.5615      0.36148092     0.058328122    28.69195       3412.643     
      1730   3.46           286.36908      136591.62     -807628.82     -9744.9711      0.36145623     0.057613251    28.687512      3412.3723    
      1740   3.48           301.97132      132162.1      -807634.8      -9622.5301      0.3614314      0.056893276    28.737691      3412.0663    
      1750   3.5            295.32376      128399.5      -807638.32     -9479.6772      0.36140643     0.05605253     28.720173      3411.7718    
      1760   3.52           283.67656      128200.32     -807638.75     -9414.6232      0.36138131     0.05567174     28.76945       3411.4433    
      1770   3.54           290.55346      127995.49     -807638.9      -9440.7416      0.36135605     0.055830089    28.759337      3411.1214    
      1780   3.56           293.25457      131983.2      -807633.95     -9612.907       0.36133065     0.056852226    28.738112      3410.8134    
      1790   3.58           293.28056      136023.16     -807628.48     -9789.825       0.36130511     0.05790264     28.707476      3410.5253    
      1800   3.6            288.615        138882.13     -807625.6      -9860.5141      0.36127942     0.058324882    28.698437      3410.2426    
      1810   3.62           287.01644      137772.86     -807625.84     -9846.3416      0.3612536      0.058245216    28.66955       3409.9781    
      1820   3.64           294.97999      135954.22     -807629.54     -9762.6347      0.36122763     0.057754206    28.685115      3409.7026    
      1830   3.66           297.72153      130954.43     -807635.04     -9601.1465      0.36120151     0.056802974    28.675561      3409.4324    
      1840   3.68           285.1314       128668.61     -807637.55     -9461.919       0.36117526     0.055983336    28.700341      3409.1454    
      1850   3.7            297.58592      126309.68     -807642.3      -9367.2846      0.36114886     0.055427464    28.746051      3408.8282    
      1860   3.72           286.16779      129508.55     -807636.88     -9489.1954      0.36112232     0.056152953    28.75045       3408.508     
      1870   3.74           289.57392      131749.49     -807633.35     -9620.582       0.36109564     0.056934648    28.734802      3408.1973    
      1880   3.76           289.84538      137163.26     -807628.45     -9778.4889      0.36106881     0.057873441    28.67091       3407.9268    
      1890   3.78           289.96101      137376.29     -807626.69     -9837.2458      0.36104184     0.05822554     28.743726      3407.6096    
      1900   3.8            283.00339      138853.72     -807625.2      -9852.6079      0.36101474     0.058320846    28.733954      3407.2981    
      1910   3.82           290.82329      134629.09     -807630.38     -9723.5205      0.36098748     0.05756108     28.737732      3406.9839    
      1920   3.84           295.75114      132147.15     -807635.73     -9572.2985      0.36096009     0.05667018     28.742843      3406.6663    
      1930   3.86           283.13174      127421.56     -807639.21     -9407.4952      0.36093255     0.055698755    28.715899      3406.3648    
      1940   3.88           285.28342      128405.37     -807638.92     -9424.8502      0.36090487     0.055805788    28.696429      3406.0749    
      1950   3.9            294.16702      127644.28     -807639.13     -9461.6682      0.36087705     0.056028112    28.730645      3405.7635    
      1960   3.92           290.49506      132852.26     -807633.37     -9630.0097      0.36084909     0.05702938     28.72083       3405.4576    
      1970   3.94           293.13168      135196.9      -807630.66     -9731.2973      0.36082098     0.057633699    28.729157      3405.1463    
      1980   3.96           288.96566      138821.28     -807625.72     -9868.8413      0.36079273     0.058452881    28.683437      3404.8621    
      1990   3.98           288.97829      136418.91     -807627.79     -9807.1118      0.36076434     0.05809183     28.651513      3404.5964    
      2000   4              292.63767      134861.05     -807631.96     -9689.9451      0.36073581     0.057402341    28.673391      3404.3168    
      2010   4.02           280.12058      130109.28     -807635.67     -297.52411      0.36070713     0.056404655    28.74866       3403.992     
      2020   4.04           273.15925      129044.43     -807637.05     -295.2193       0.36067831     0.055972182    28.772947      3403.6527    
      2030   4.06           281.99993      126734.75     -807639.61     -293.98494      0.36064935     0.055742628    28.870135      3403.2569    
      2040   4.08           275.70153      129982.56     -807636.35     -296.50634      0.36062025     0.056225249    28.844858      3402.8761    
      2050   4.1            291.52194      133880.5      -807634.14     -301.07322      0.36059101     0.057095878    28.842726      3402.4969    
      2060   4.12           285.86214      136714.12     -807629.08     -305.46625      0.36056162     0.057933698    28.829473      3402.1256    
      2070   4.14           289.58306      137744.57     -807628.14     -307.03628      0.36053209     0.058236234    28.786107      3401.7793    
      2080   4.16           285.85374      136012.51     -807629.7      -305.14025      0.36050242     0.057881374    28.787456      3401.4321    
      2090   4.18           289.20086      133253.64     -807633.26     -302.10027      0.36047261     0.057309466    28.748268      3401.1072    
      2100   4.2            281.10412      128610.39     -807637.1      -297.32954      0.36044265     0.05640913     28.714103      3400.8013    
      2110   4.22           274.49037      128856.28     -807638.24     -295.2824       0.36041256     0.056025426    28.777105      3400.4597    
      2120   4.24           275.74416      126789.63     -807640.49     -293.38804      0.36038232     0.05567067     28.804123      3400.1029    
      2130   4.26           280.71872      130875.22     -807636.35     -298.19699      0.36035193     0.056587944    28.82074       3399.7371    
      2140   4.28           277.71667      132931.58     -807633.74     -300.56602      0.36032141     0.05704234     28.856555      3399.3517    
      2150   4.3            284.18338      137379.56     -807629.32     -305.825        0.36029075     0.058045345    28.835907      3398.978     
      2160   4.32           287.61239      135826.18     -807630.75     -304.99038      0.36025994     0.057891884    28.799865      3398.6241    
      2170   4.34           272.66044      137274.42     -807628.14     -305.33857      0.36022899     0.057962956    28.801846      3398.2693    
      2180   4.36           281.1645       131714.2      -807634.13     -300.58278      0.36019789     0.057065081    28.801498      3397.9148    
      2190   4.38           280.52066      130661.34     -807637.32     -297.10113      0.36016666     0.056408989    28.838119      3397.5405    
      2200   4.4            269.52717      127078.97     -807638.76     -294.10605      0.36013528     0.055845193    28.759014      3397.209     
      2210   4.42           280.4617       128842.96     -807639.1      -295.1156       0.36010377     0.056041793    28.790263      3396.8606    
      2220   4.44           279.7836       129479.28     -807636.71     -297.29273      0.36007211     0.056460189    28.799755      3396.5072    
      2230   4.46           276.01261      134650.53     -807631.16     -302.03634      0.3600403      0.057366136    28.79548       3396.1561    
      2240   4.48           275.62985      135986.11     -807628.28     -304.65545      0.36000836     0.057868722    28.780414      3395.813     
      2250   4.5            283.81906      138141.88     -807627.14     -306.64068      0.35997627     0.058251004    28.798005      3395.4605    
      2260   4.52           289.98577      136225.79     -807630.24     -304.14415      0.35994404     0.057781923    28.777441      3395.1189    
      2270   4.54           282.53039      134189.34     -807632.27     -300.72949      0.35991167     0.057138338    28.767629      3394.7824    
      2280   4.56           286.78666      129831.15     -807636.88     -296.3814       0.35987916     0.056317291    28.781802      3394.4383    
      2290   4.58           285.77141      127216.15     -807638.92     -293.89237      0.35984651     0.055849403    28.761567      3394.1047    
      2300   4.6            290.71437      127666.21     -807639.58     -293.66129      0.35981371     0.055810576    28.759429      3393.7721    
      2310   4.62           294.87254      129764.25     -807637.18     -296.44928      0.35978077     0.056345594    28.79189       3393.4228    
      2320   4.64           283.39075      135224.37     -807629.79     -302.02965      0.35974769     0.057411524    28.773311      3393.0829    
      2330   4.66           289.84838      136760.05     -807628.34     -304.22229      0.35971447     0.057833654    28.778221      3392.7405    
      2340   4.68           297.20531      138235.67     -807627.09     -306.23272      0.35968111     0.058221244    28.755906      3392.4092    
      2350   4.7            291.89797      135534.18     -807629.11     -303.34646      0.3596476      0.057677878    28.779812      3392.0659    
      2360   4.72           291.95209      134239.97     -807631.54     -300.76133      0.35961396     0.057191697    28.797832      3391.7135    
      2370   4.74           295.09219      129247.16     -807637.38     -295.25046      0.35958017     0.056149045    28.761578      3391.3792    
      2380   4.76           292.19455      128225.91     -807638.91     -293.18726      0.35954624     0.055761938    28.779685      3391.0358    
      2390   4.78           284.99328      127940.63     -807638.09     -292.91586      0.35951216     0.0557156      28.79658       3390.684     
      2400   4.8            293.60949      132585.01     -807634.92     -297.18488      0.35947795     0.056532992    28.756183      3390.3521    
      2410   4.82           296.65804      133448.24     -807631.52     -301.02617      0.35944359     0.057269189    28.759002      3390.0187    
      2420   4.84           293.16864      138426.43     -807626.57     -305.36075      0.35940909     0.058099403    28.824848      3389.6532    
      2430   4.86           290.72506      136593.96     -807627.58     -304.05512      0.35937446     0.057856564    28.822823      3389.2888    
      2440   4.88           303.36153      136176.13     -807629.67     -303.58914      0.35933967     0.057773487    28.839676      3388.9164    
      2450   4.9            288.6992       131445.71     -807632.85     -298.45352      0.35930475     0.056801691    28.838776      3388.5446    
      2460   4.92           293.64605      130507.87     -807636.27     -295.60181      0.35926969     0.056264445    28.837533      3388.1737    
      2470   4.94           290.42753      127047.29     -807639.99     -291.4982       0.35923448     0.055488806    28.84143       3387.8011    
      2480   4.96           293.55466      130409.47     -807637.89     -293.9477       0.35919913     0.055960593    28.83532       3387.4316    
      2490   4.98           292.27608      129774.83     -807634.93     -296.86421      0.35916364     0.056521411    28.81469       3387.072     
      2500   5              292.91637      135622.99     -807629.65     -302.21995      0.35912801     0.057546826    28.829357      3386.7056    
[...]
     98740   197.48         293.81058      133767.08     -807631.23     -9690.8628      0.36236891     0.057149055    29.144184      44.301506    
     98750   197.5          299.71284      132277.04     -807633.27     -9654.8298      0.36238762     0.056933622    29.192856      43.949792    
     98760   197.52         301.57641      133411        -807633.23     -9663.4424      0.36240618     0.056981491    29.175695      43.598082    
     98770   197.54         291.30844      133511.37     -807631.7      -9669.5333      0.36242459     0.05701451     29.193267      43.246372    
     98780   197.56         296.7621       134172.64     -807630.65     -9728.795       0.36244287     0.057361042    29.200852      42.894663    
     98790   197.58         298.09261      134162.71     -807630.99     -9726.8259      0.362461       0.057346564    29.137648      42.542964    
     98800   197.6          296.76179      133946.16     -807632.66     -9669.7219      0.36247899     0.057007066    29.114056      42.191271    
     98810   197.62         294.10202      134102.96     -807632.52     -9664.8283      0.36249683     0.056975411    29.188952      41.839569    
     98820   197.64         292.98839      132370.06     -807631.74     -9690.3918      0.36251453     0.057123322    29.191106      41.487868    
     98830   197.66         296.64564      133549.98     -807632.34     -9688.2413      0.36253209     0.057107879    29.245125      41.136162    
     98840   197.68         289.35585      132275.21     -807633.14     -9635.108       0.36254951     0.056791953    29.191023      40.784465    
     98850   197.7          303.77442      134117.19     -807633.16     -9698.7326      0.36256678     0.05716425     29.120854      40.432779    
     98860   197.72         295.50595      133198.55     -807632.16     -9700.7583      0.36258391     0.057173489    29.197738      40.081085    
     98870   197.74         295.90015      135519.59     -807630.9      -9743.2039      0.3626009      0.05742096     29.210699      39.729391    
     98880   197.76         295.31159      132224.12     -807633.85     -9651.6438      0.36261774     0.056878715    29.140566      39.377708    
     98890   197.78         290.67321      134337.6      -807631.47     -9708.1856      0.36263445     0.05720929     29.126399      39.026028    
     98900   197.8          292.18741      131331.42     -807632.98     -9672.482       0.362651       0.05699629     29.171237      38.674345    
     98910   197.82         288.32709      134933.85     -807631.05     -9716.0087      0.36266742     0.057250185    29.168354      38.322663    
     98920   197.84         293.62384      131864.18     -807634.73     -9628.378       0.36268369     0.056731288    29.162016      37.970985    
     98930   197.86         289.31645      135070.13     -807630.86     -9731.5571      0.36269982     0.057336679    29.189363      37.619304    
     98940   197.88         288.21907      132599.9      -807632.13     -9693.0173      0.36271581     0.057107092    29.174434      37.267627    
     98950   197.9          293.47543      134620.61     -807631.25     -9745.5112      0.36273165     0.057413856    29.154183      36.915955    
     98960   197.92         286.76073      132547.79     -807632.78     -9670.0785      0.36274735     0.056966992    29.148812      36.564285    
     98970   197.94         291.07914      134442.46     -807632.24     -9707.6831      0.36276291     0.057186071    29.137779      36.212618    
     98980   197.96         297.02891      132352.3      -807633.39     -9700.8962      0.36277832     0.057143662    29.133564      35.860953    
     98990   197.98         285.18875      133704.18     -807631.55     -9706.9797      0.36279359     0.05717709     29.073567      35.509298    
     99000   198            301.46086      131756.86     -807636.22     -9631.3283      0.36280872     0.056729115    29.11321       35.157639    
     99010   198.02         289.20639      133707.23     -807632.55     -302.99426      0.3628237      0.057106596    29.224156      34.805968    
     99020   198.04         292.70845      133247.2      -807632.97     -303.20582      0.36283855     0.057144131    29.220076      34.454301    
     99030   198.06         286.8221       134503.5      -807631.44     -303.96075      0.36285324     0.05728409     29.235093      34.102633    
     99040   198.08         292.64623      133340.81     -807633.01     -303.28943      0.3628678      0.05715528     29.218925      33.750969    
     99050   198.1          284.54467      133737.39     -807631.98     -303.26237      0.36288221     0.057147911    29.217858      33.399307    
     99060   198.12         290.71263      133185.22     -807631.95     -304.19883      0.36289648     0.057322127    29.16795       33.047652    
     99070   198.14         282.24324      133126.68     -807632.5      -302.50304      0.36291061     0.057000361    29.160471      32.696001    
     99080   198.16         294.72358      132710.28     -807635.12     -301.62276      0.36292459     0.056832299    29.199047      32.344346    
     99090   198.18         291.29611      131761.63     -807634.4      -301.93383      0.36293843     0.056888743    29.252259      31.992688    
     99100   198.2          283.51647      133140.28     -807631.56     -303.72039      0.36295213     0.057223198    29.228761      31.641034    
     99110   198.22         292.22903      132837.98     -807633.56     -302.96924      0.36296568     0.057079544    29.210926      31.289384    
     99120   198.24         291.14755      134219.36     -807632.19     -304.16393      0.36297909     0.057302507    29.213202      30.937736    
     99130   198.26         292.25506      132966.17     -807632.25     -304.34639      0.36299236     0.057334785    29.179024      30.586093    
     99140   198.28         289.60575      134788.46     -807631.14     -305.08398      0.36300548     0.057471659    29.171551      30.234453    
     99150   198.3          283.00728      132657.11     -807632.86     -302.43608      0.36301846     0.056970812    29.206522      29.882811    
     99160   198.32         292.76423      133138.11     -807634.05     -302.63785      0.3630313      0.057006804    29.19457       29.531172    
     99170   198.34         278.17631      132615.93     -807632.58     -302.14524      0.36304399     0.056912022    29.127003      29.179541    
     99180   198.36         288.17099      133016.82     -807632.21     -303.82755      0.36305655     0.057226923    29.140531      28.827911    
     99190   198.38         285.72812      132724.28     -807633.39     -302.35019      0.36306895     0.056946712    29.170868      28.47628     
     99200   198.4          292.12857      134247.49     -807632.67     -303.93813      0.36308122     0.05724386     29.201799      28.124647    
     99210   198.42         290.54623      133382.81     -807631.77     -304.64343      0.36309334     0.057374782    29.219808      27.773015    
     99220   198.44         300.15378      134168.15     -807632.88     -304.7801       0.36310532     0.057398629    29.215801      27.421385    
     99230   198.46         291.81101      131885.05     -807633.55     -302.92149      0.36311715     0.05704674     29.222623      27.069756    
     99240   198.48         291.8225       132980.73     -807633.83     -302.61179      0.36312885     0.056986582    29.235815      26.718128    
     99250   198.5          277.00584      132595.11     -807631.42     -302.89934      0.3631404      0.057038919    29.170351      26.366508    
     99260   198.52         292.53764      133281.69     -807633.73     -302.68373      0.3631518      0.056996527    29.188899      26.014887    
     99270   198.54         289.20877      133301.63     -807634.03     -301.81872      0.36316306     0.056831879    29.208465      25.663267    
     99280   198.56         295.13574      132901.62     -807633.2      -303.34206      0.36317418     0.057116973    29.204604      25.311649    
     99290   198.58         293.28744      134320.65     -807631        -305.1983       0.36318516     0.057464751    29.159705      24.960037    
     99300   198.6          297.08321      134053.89     -807631.96     -304.66623      0.36319599     0.057362859    29.171896      24.608426    
     99310   198.62         290.03815      134391.02     -807632.26     -303.20788      0.36320668     0.057086599    29.222855      24.256812    
     99320   198.64         291.2901       132743.62     -807632.07     -303.48339      0.36321723     0.057136811    29.230032      23.905199    
     99330   198.66         287.96611      133966.01     -807630.73     -304.2504       0.36322763     0.057279576    29.227126      23.553589    
     99340   198.68         281.1503       132879.96     -807631.66     -302.25931      0.36323789     0.056903118    29.225265      23.20198     
     99350   198.7          301.18131      132667.56     -807634.28     -302.31004      0.36324801     0.056911083    29.254405      22.850372    
     99360   198.72         288.78422      132970.78     -807632.13     -302.68442      0.36325798     0.056979998    29.26253       22.498764    
     99370   198.74         295.18687      135006.73     -807630        -305.60289      0.36326781     0.057527838    29.222939      22.147162    
     99380   198.76         288.69898      133180.03     -807631.18     -303.46261      0.3632775      0.057123421    29.160947      21.795566    
     99390   198.78         297.0372       134317.37     -807632.51     -303.19282      0.36328704     0.057071136    29.165532      21.443971    
     99400   198.8          288.50903      133401.62     -807630.75     -303.79624      0.36329644     0.057183241    29.189755      21.092377    
     99410   198.82         295.47479      134113.66     -807630.45     -304.94883      0.3633057      0.057398729    29.248727      20.74078     
     99420   198.84         297.45502      132814.1      -807633.31     -302.30753      0.36331481     0.056900146    29.227007      20.389186    
     99430   198.86         301.73357      133293.59     -807634.2      -301.96371      0.36332378     0.056834029    29.174161      20.037598    
     99440   198.88         297.98072      132817        -807633.39     -302.33121      0.36333261     0.056901816    29.15711       19.686013    
     99450   198.9          295.39743      135044.92     -807630.99     -304.37546      0.36334129     0.057285195    29.213363      19.334426    
     99460   198.92         292.33536      133777.04     -807631.28     -303.70712      0.36334983     0.057158065    29.277483      18.982837    
     99470   198.94         298.07387      134620.83     -807632.41     -303.41283      0.36335823     0.05710136     29.197243      18.631255    
     99480   198.96         287.09424      134583.35     -807630.16     -304.20635      0.36336648     0.057249398    29.179084      18.279676    
     99490   198.98         298.94501      134535.36     -807630.03     -306.11229      0.3633746      0.057606796    29.201477      17.928097    
     99500   199            298.28261      132810.03     -807632.2      -303.94258      0.36338256     0.057197227    29.238347      17.576518    
     99510   199.02         286.87294      133078.35     -807632.74     -9660.5955      0.36339039     0.05681042     29.136107      17.224947    
     99520   199.04         298.48696      132349.44     -807634.08     -9674.2189      0.36339807     0.056889332    29.104712      16.873379    
     99530   199.06         291.17057      132491.78     -807631.63     -9726.9924      0.3634056      0.057198481    29.123152      16.521811    
     99540   199.08         290.92918      133283.71     -807632.17     -9712.9496      0.363413       0.057114742    29.128775      16.170246    
     99550   199.1          287.57732      133519.93     -807632.95     -9680.0756      0.36342025     0.056920298    29.164492      15.818679    
     99560   199.12         281.84887      135042.07     -807630.44     -9743.4505      0.36342736     0.057291831    29.145187      15.467116    
     99570   199.14         286.86885      134751.1      -807630.07     -9784.8099      0.36343432     0.057533924    29.118141      15.115556    
     99580   199.16         290.59325      134073.58     -807631.77     -9752.4925      0.36344114     0.057342824    29.1494        14.763995    
     99590   199.18         283.13699      133686.64     -807633.18     -9680.5069      0.36344782     0.056918516    29.138105      14.412437    
     99600   199.2          289.81239      133150.49     -807633.68     -9700.1948      0.36345435     0.05703325     29.10286       14.060883    
     99610   199.22         291.5477       131663.93     -807633.77     -9713.746       0.36346074     0.057111921    29.166067      13.709327    
     99620   199.24         286.57096      132780.05     -807633.45     -9707.0573      0.36346699     0.057071614    29.226333      13.35777     
     99630   199.26         284.24953      132513.47     -807634.05     -9684.5488      0.3634731      0.056938322    29.209406      13.006216    
     99640   199.28         276.47763      134415.94     -807631.05     -9748.6398      0.36347906     0.057314192    29.182016      12.654664    
     99650   199.3          279.66418      134348.07     -807630.66     -9781.1589      0.36348487     0.057504457    29.196999      12.303114    
     99660   199.32         291.93881      134401.96     -807633.19     -9757.363       0.36349055     0.057363664    29.249922      11.951564    
     99670   199.34         281.00826      134007.25     -807633.22     -9709.0939      0.36349608     0.057079021    29.229716      11.600016    
     99680   199.36         285.36231      133317.81     -807633.56     -9720.6859      0.36350147     0.057146322    29.206808      11.248471    
     99690   199.38         286.43788      132294.92     -807634.25     -9705.6408      0.36350671     0.057057051    29.215098      10.896928    
     99700   199.4          283.12015      132737.86     -807633.85     -9702.8015      0.36351181     0.057039559    29.199137      10.545387    
     99710   199.42         281.82815      132045.73     -807634.91     -9664.876       0.36351677     0.056815833    29.195594      10.193848    
     99720   199.44         283.28309      132634.1      -807633.12     -9728.3442      0.36352158     0.057188179    29.195309      9.8423104    
     99730   199.46         285.98052      134306.74     -807632.26     -9768.6539      0.36352625     0.057424402    29.162016      9.490776     
     99740   199.48         278.34544      134426.67     -807631.46     -9759.7248      0.36353078     0.057371199    29.10231       9.1392452    
     99750   199.5          284.69575      134104.42     -807633.23     -9728.8692      0.36353516     0.057189129    29.043814      8.7877177    
     99760   199.52         278.28572      133060.27     -807632.3      -9729.1369      0.3635394      0.057190035    29.113334      8.4361897    
     99770   199.54         285.58966      132850.59     -807632.54     -9752.3281      0.3635435      0.057325712    29.119415      8.0846632    
     99780   199.56         281.32163      132407.04     -807633.97     -9683.023       0.36354745     0.056917707    29.135395      7.7331378    
     99790   199.58         282.00595      132650.23     -807633.87     -9684.2003      0.36355126     0.056924031    29.141521      7.381614     
     99800   199.6          293.13487      132708.69     -807634.51     -9709.4476      0.36355493     0.057071859    29.200352      7.0300904    
     99810   199.62         286.7361       134298.54     -807631.83     -9762.5522      0.36355845     0.057383451    29.183919      6.678569     
     99820   199.64         284.21652      133964.09     -807631.32     -9761.8847      0.36356183     0.057378994    29.098247      6.3270513    
     99830   199.66         290.35932      133875.79     -807632.91     -9729.8473      0.36356507     0.057190173    29.104635      5.9755349    
     99840   199.68         290.62665      133116.58     -807632.86     -9725.7895      0.36356816     0.057165836    29.102949      5.6240202    
     99850   199.7          289.15568      134141.89     -807631.01     -9769.5727      0.36357111     0.057422717    29.050603      5.272508     
     99860   199.72         288.04478      132408.51     -807632.68     -9700.1208      0.36357392     0.057014059    29.107723      4.9209964    
     99870   199.74         296.09513      132560.13     -807634.66     -9660.3417      0.36357658     0.056779835    29.115992      4.5694862    
     99880   199.76         291.60821      132163.91     -807632.95     -9685.5852      0.3635791      0.056927812    29.133522      4.2179773    
     99890   199.78         299.14832      133917.12     -807631.41     -9758.8243      0.36358148     0.057357906    29.124503      3.8664702    
     99900   199.8          287.96603      133836.55     -807630.67     -9724.3053      0.36358371     0.057154668    29.121541      3.5149648    
     99910   199.82         290.51513      135249.29     -807630.6      -9729.0217      0.3635858      0.05718206     29.176224      3.1634605    
     99920   199.84         294.9451       133761.89     -807630.13     -9759.7966      0.36358775     0.057362631    29.187726      2.8119577    
     99930   199.86         307.89639      134444.24     -807630.88     -9788.97        0.36358955     0.057533811    29.186495      2.4604568    
     99940   199.88         301.45971      133144.56     -807632.18     -9717.3085      0.36359121     0.057112366    29.192648      2.1089576    
     99950   199.9          300.51102      133279.34     -807632.17     -9709.4266      0.36359273     0.057065803    29.253867      1.7574598    
     99960   199.92         298.0255       132577.53     -807632.8      -9678.5584      0.3635941      0.056884165    29.237451      1.4059641    
     99970   199.94         300.46148      133153.04     -807631.89     -9718.1694      0.36359533     0.057116779    29.230509      1.0544702    
     99980   199.96         287.27044      133322.15     -807630.37     -9709.937       0.36359641     0.057068224    29.223971      0.7029783    
     99990   199.98         305.8205       133727.2      -807632.76     -9716.1113      0.36359736     0.057104365    29.189035      0.35148826   
    100000   200            288.34899      134937.02     -807629.18     -9755.546       0.36359816     0.057336008    29.176218      0            
Loop time of 3514.87 on 32 procs for 100000 steps with 1080 atoms

Performance: 4.916 ns/day, 4.882 hours/ns, 28.451 timesteps/s, 30.727 katom-step/s
62.0% CPU use with 32 MPI tasks x 1 OpenMP threads

MPI task timing breakdown:
Section |  min time  |  avg time  |  max time  |%varavg| %total
---------------------------------------------------------------
Pair    | 2444.9     | 2806       | 3186       | 319.3 | 79.83
Neigh   | 0.00082957 | 0.00089142 | 0.001047   |   0.0 |  0.00
Comm    | 253.11     | 633.51     | 993.7      | 671.6 | 18.02
Output  | 2.4635     | 2.4783     | 2.4889     |   0.4 |  0.07
Modify  | 65.433     | 66.558     | 67.661     |   7.5 |  1.89
Other   |            | 6.366      |            |       |  0.18

Nlocal:          33.75 ave          42 max          26 min
Histogram: 1 2 5 4 5 5 5 0 4 1
Nghost:         1039.5 ave        1051 max        1030 min
Histogram: 4 4 3 3 6 1 3 3 3 2
Neighs:              0 ave           0 max           0 min
Histogram: 32 0 0 0 0 0 0 0 0 0
FullNghs:       5354.5 ave        6712 max        4108 min
Histogram: 1 2 6 3 7 3 5 0 4 1

Total # of neighbors = 171344
Ave neighs/atom = 158.65185
Neighbor list builds = 2
Dangerous builds = 0

Total wall time: 1:02:07
