
units		metal
atom_style	atomic

read_data ${STRUCTURE}.data
read_data BaTiO3-sc333.data
Reading data file ...
  orthogonal box = (0 0 0) to (11.898253 11.898253 12.912076)
  2 by 4 by 4 MPI processor grid
  reading atoms ...
  135 atoms
  read_data CPU = 0.120 seconds
replicate $L $L $L
replicate 2 $L $L
replicate 2 2 $L
replicate 2 2 2
Replication is creating a 2x2x2 = 8 times larger system...
  orthogonal box = (0 0 0) to (23.796507 23.796507 25.824152)
  2 by 4 by 4 MPI processor grid
  1080 atoms
  replicate CPU = 0.004 seconds

pair_style allegro
pair_coeff	* * ${MODEL}.pth Ba Ti O
pair_coeff	* * BaTiO3-E0.pth Ba Ti O
mass 1 137.3
mass 2 47.9
mass 3 15.9994

timestep 0.002
compute polarization all allegro polarization 3
compute allegro will evaluate the quantity polarization of length 3 (src/compute_allegro.cpp:53)
compute polarizability all allegro polarizability 9
compute allegro will evaluate the quantity polarizability of length 9 (src/compute_allegro.cpp:53)

thermo_style custom pe fmax fnorm spcpu cpuremain

variable efield equal 1e-2*36.36
fix born all addbornforce 0.0 0.0 ${efield}
fix born all addbornforce 0.0 0.0 0.3636

thermo 10
min_style fire
#minimize 0.0 1e-6 100 100
velocity all create ${TEMP} ${SEED} dist gaussian rot yes mom yes
velocity all create 310 ${SEED} dist gaussian rot yes mom yes
velocity all create 310 22940 dist gaussian rot yes mom yes
fix nvt all nvt temp ${TEMP} ${TEMP} $(100*dt)
fix nvt all nvt temp 310 ${TEMP} $(100*dt)
fix nvt all nvt temp 310 310 $(100*dt)
fix nvt all nvt temp 310 310 0.2000000000000000111
run 5000
Neighbor list info ...
  update: every = 1 steps, delay = 0 steps, check = yes
  max neighbors/atom: 2000, page size: 100000
  master list distance cutoff = 8
  ghost atom cutoff = 8
  binsize = 8, bins = 3 3 4
  1 neighbor lists, perpetual/occasional/extra = 1 0 0
  (1) pair allegro/kk, perpetual
      attributes: full, newton on, kokkos_device
      pair build: full/bin/kk/device
      stencil: full/bin/3d
      bin: kk/device
Per MPI rank memory allocation (min/avg/max) = 3.516 | 3.516 | 3.516 Mbytes
    PotEng          Fmax          Fnorm          S/CPU         CPULeft    
-807708.29      1.5957636      37.043124      0              0            
-807647.92      3.3531163      44.575716      2.3197579      2151.0875    
-807635.82      2.4754893      35.365301      25.919141      1169.4564    
-807605.03      3.3242038      38.256711      25.922468      841.98055    
-807605         4.1100376      49.852064      25.863515      678.15881    
-807570.18      3.6403613      40.161309      25.838815      579.7477     
-807601.18      2.9494487      38.9794        25.903957      513.93118    
-807645.11      3.940705       34.145699      25.916424      466.79595    
-807684.6       3.1219887      34.330805      25.883231      431.37853    
-807669.01      3.828329       34.475006      25.887785      403.74207    
-807652.66      3.786401       34.735646      25.918249      381.5334     
-807659.38      2.5101117      28.225215      25.907993      363.29932    
-807629.41      2.8887852      31.174095      25.880733      348.05645    
-807587.97      3.2337167      40.264387      25.871455      335.10438    
-807568.59      3.1087374      37.983488      25.929942      323.91712    
-807630.64      3.2857389      33.510837      25.90977       314.1798     
-807654.3       3.1960349      31.000478      25.874228      305.62742    
-807666.26      2.8815755      34.191416      25.89455       298.02712    
-807646.32      6.2586         45.040624      25.922463      291.21726    
-807679.26      3.2538707      35.90522       25.875888      285.10119    
-807642.63      4.4056944      39.175785      25.833165      279.57341    
-807618.92      3.1637685      38.635756      25.907112      274.51004    
-807561.09      4.5332618      46.378625      25.928218      269.86505    
-807604.93      4.2566963      49.005916      25.876051      265.60656    
-807614.18      4.40275        39.670783      25.860222      261.67543    
-807643.89      3.1866235      35.619611      25.926833      258.00898    
-807641.1       5.1904604      45.834389      25.930561      254.59389    
-807682.41      2.9695081      37.230529      25.887331      251.41447    
-807664.41      2.9070766      34.168814      25.826157      248.45       
-807639.77      2.9502481      31.683574      25.88173       245.64976    
-807607.02      3.5225105      33.546618      25.9326        242.99857    
-807606.19      3.7436525      41.36606       25.897965      240.50135    
-807598.78      3.3110351      36.836126      25.825235      238.15197    
-807610.2       3.2396269      33.568396      25.913643      235.90283    
-807640.3       3.4339061      31.54175       25.940408      233.75783    
-807672.2       3.1435853      31.932584      25.889479      231.72344    
-807677.93      2.4634699      32.958588      25.817924      229.79442    
-807644.26      4.3706656      38.553777      25.904801      227.93247    
-807646.76      2.8899335      31.458754      25.902467      226.14864    
-807622.14      3.7632857      34.173733      25.883128      224.43988    
-807603.34      4.1834094      43.801974      25.832033      222.80604    
-807570.98      3.9782416      41.858987      25.906052      221.22063    
-807621.62      3.5163022      35.782753      25.944483      219.6861     
-807647.69      4.0559153      36.724448      25.903165      218.21155    
-807673.86      3.1164038      35.491052      25.842514      216.79586    
-807642         4.7552367      47.141503      25.912621      215.41532    
-807666         3.1023708      35.212089      25.914253      214.07777    
-807645.6       4.4249291      36.887896      25.926171      212.77902    
-807626.27      3.688924       38.116971      25.951293      211.51479    
-807566.46      4.8333259      43.43159       25.931224      210.28918    
-807600.92      3.9281522      42.9744        25.95268       209.09429    
-807623.55      3.5472575      35.45235       25.926927      207.93453    
-807656.72      2.5969859      32.258851      25.921797      206.80519    
-807643.55      4.5836025      40.831555      25.944291      205.7011     
-807670.16      3.0399251      34.351923      25.931388      204.62521    
-807668.21      2.3463963      32.521642      25.859858      203.58304    
-807646.02      3.5879777      30.215199      25.898236      202.55974    
-807600.59      3.1357701      35.075965      25.933267      201.55474    
-807596.24      3.7171382      38.08775       25.922116      200.57237    
-807606.03      3.9456299      39.553476      25.89796       199.61291    
-807621.48      4.2332452      32.458689      25.907524      198.67152    
-807636.22      3.2812304      33.178214      25.936414      197.74524    
-807662.57      4.1433519      34.640271      25.907576      196.83943    
-807675.8       3.2554071      36.199976      25.801096      195.96118    
-807648.14      4.4946884      38.298154      25.853423      195.09291    
-807634.25      3.6577211      33.709727      25.945861      194.23025    
-807612.76      4.888217       36.115555      25.912879      193.38526    
-807604.79      4.2383577      45.606519      25.901042      192.55512    
-807583.63      4.7873765      39.661901      25.872484      191.74075    
-807615.33      3.2670678      36.513451      25.905968      190.93567    
-807644.64      3.3627141      36.611845      25.925538      190.14076    
-807674.13      3.3865091      36.568935      25.877454      189.36171    
-807651.25      5.1003288      40.858728      25.899145      188.59164    
-807652.63      3.5733631      35.471848      25.958825      187.8269     
-807642.7       3.7990505      34.32081       25.926134      187.07521    
-807625.57      3.176485       37.815919      25.913709      186.33433    
-807580.9       3.6346442      38.864646      25.904304      185.60357    
-807587.48      3.3429425      40.453486      25.925819      184.88001    
-807626.83      3.3118067      33.708202      25.919117      184.16565    
-807658.18      3.0123555      33.131144      25.890308      183.4619     
-807653.58      3.6589899      36.167709      25.925556      182.76332    
-807657.16      3.3520475      35.869186      25.853745      182.07802    
-807664.5       3.3939257      33.190973      25.859456      181.39955    
-807644.8       3.4438644      32.350994      25.858256      180.72821    
-807607.99      3.1683712      35.413411      25.93059       180.05831    
-807581.78      3.8032136      39.268232      25.939177      179.39446    
-807606.83      3.9396905      40.777184      25.87564       178.74165    
-807628.14      3.7117947      33.808534      25.892836      178.09374    
-807642.9       3.0051474      33.914678      25.922538      177.44971    
-807649.62      4.6451444      39.180081      25.930017      176.81097    
-807672.75      3.0092949      35.792128      25.905251      176.17953    
-807652.84      3.8409107      36.837174      25.863029      175.55632    
-807633.08      2.9753279      33.811635      25.903545      174.93557    
-807600.97      3.9634676      37.701023      25.948494      174.31694    
-807604.97      3.7220777      42.727187      25.863543      173.70874    
-807597.78      4.255001       38.257146      25.823693      173.10774    
-807619.18      2.9246542      34.661779      25.892518      172.50687    
-807639.09      3.5333983      36.292803      25.953607      171.90665    
-807669.32      2.7395504      35.712336      25.822091      171.31886    
-807662.03      3.6096732      35.534514      25.856281      170.73305    
-807646.15      3.7894074      34.876668      25.900368      170.14859    
-807632.28      3.5110927      33.612361      25.900255      169.56807    
-807623.38      3.411761       36.016427      25.906357      168.991      
-807595.73      3.4462405      37.932176      25.865539      168.41999    
-807590.94      3.5407384      38.129227      25.887445      167.85128    
-807623.19      4.9192526      33.148542      25.893896      167.28568    
-807657.09      3.4512791      32.525899      25.906311      166.72278    
-807661.15      3.7127324      34.14665       25.911323      166.16291    
-807650.1       3.9563355      36.292346      25.888839      165.60747    
-807654.47      3.455453       32.334745      25.90678       165.05419    
-807643.92      3.6838988      31.095611      25.914287      164.50355    
-807612.9       3.3349504      35.60537       25.901461      163.95654    
-807582.1       3.7874883      38.092351      25.921732      163.41137    
-807605.6       3.3648698      37.607842      25.916332      162.86929    
-807632.39      3.6079175      33.835002      25.891981      162.33118    
-807651.27      3.1910947      32.915744      25.909719      161.79482    
-807644.98      5.6796978      39.274671      25.914409      161.26083    
-807665.52      3.1364631      34.002532      25.905402      160.72981    
-807653.73      4.0162093      34.47911       25.868241      160.20304    
-807636.01      3.1774857      32.256925      25.856982      159.67917    
-807597.29      3.6289079      36.491649      25.916126      159.15479    
-807601.36      3.3299215      38.665491      25.867722      158.63496    
-807607.69      3.2759932      35.910392      25.787761      158.12102    
-807629.41      2.7492443      32.637569      25.841144      157.60669    
-807637.89      4.0187188      35.979055      25.919719      157.09085    
-807663.57      2.5852872      33.991921      25.916501      156.57723    
-807660.59      2.9200069      34.923889      25.852687      156.06847    
-807648.05      3.1575825      33.94603       25.898397      155.55963    
-807623.21      3.4730152      34.402878      25.93362       155.05118    
-807615.29      3.1126928      35.248291      25.950776      154.54389    
-807601.96      3.4724621      38.622637      25.923783      154.03963    
-807602.62      3.7908347      36.205711      25.90051       153.53816    
-807623.38      3.2898852      32.276388      25.967461      153.03565    
-807653.51      2.6728271      31.780093      25.957471      152.53532    
-807663.47      3.0826375      33.551047      25.870844      152.04024    
-807650.85      3.6134432      35.185458      25.893966      151.54582    
-807644.1       3.1519566      32.729113      25.902576      151.05266    
-807633.76      2.741673       31.999465      25.92944       150.56       
-807615.46      3.5282413      36.174124      25.913799      150.0695     
-807588.41      4.081703       37.986069      25.861209      149.58254    
-807604.46      3.1674142      35.682815      25.891648      149.09584    
-807634.32      3.5580855      32.69993       25.884758      148.61084    
-807656.5       3.2320654      33.232011      25.884108      148.12725    
-807649.87      3.3483639      36.382691      25.858827      147.64596    
-807654.63      3.3308141      33.72843       25.891981      147.16476    
-807648.69      3.2980039      33.127465      25.863115      146.68592    
-807635.62      2.8586741      32.18712       25.857248      146.20857    
-807597.73      3.2647978      35.66348       25.872803      145.73188    
-807595.99      3.2252454      37.572031      25.920939      145.25471    
-807612.48      3.4099795      34.615941      25.872864      144.78045    
-807638.88      3.5784775      32.503721      25.904638      144.30626    
-807642.67      3.6246141      35.123206      25.918987      143.83274    
-807655.18      3.4503181      34.802405      25.949765      143.35933    
-807657.51      3.0499696      34.747842      25.922774      142.88797    
-807648.18      3.7385041      32.453152      25.869638      142.41951    
-807620.45      3.147238       33.415302      25.927788      141.95018    
-807603.17      2.9158872      35.915783      25.940598      141.4815     
-807601.96      3.5930614      37.739808      25.909659      141.01488    
-807614.61      3.527724       34.843964      25.919841      140.54896    
-807626.76      3.2624298      33.263894      25.973005      140.08235    
-807647.19      3.4943326      33.033051      25.965949      139.61698    
-807662.59      3.4503731      33.736357      25.909147      139.15439    
-807653.25      3.3654693      34.261039      25.790014      138.69647    
-807638.71      3.0489672      33.186058      25.843532      138.23774    
-807624.61      4.1463138      32.636075      25.901794      137.77811    
-807611.99      4.7471459      36.75653       25.849546      137.32095    
-807595.75      4.5579385      37.74919       25.84217       136.86487    
-807607.27      3.0449799      35.367391      25.910005      136.40759    
-807632.76      3.6544779      32.816474      25.916825      135.95095    
-807656.5       2.6969566      32.484507      25.902515      135.49558    
-807653.01      3.9978722      35.411289      25.81604       135.04353    
-807648.67      2.829116       34.779614      25.839311      134.59156    
-807643.03      3.1940806      32.913504      25.893488      134.13881    
-807631.44      2.8379395      33.071697      25.918532      133.68612    
-807601.64      3.3813682      36.6718        25.898753      133.23475    
-807595.26      3.4769462      37.199656      25.890487      132.78436    
-807614.89      3.4255335      34.239473      25.901283      132.33439    
-807643.25      3.7146728      31.543113      25.914545      131.88479    
-807648.04      3.190794       33.60063       25.895067      131.43643    
-807651.69      3.1847325      34.545065      25.887894      130.98896    
-807654.57      3.3311185      33.005362      25.875753      130.54249    
-807646.85      3.6387998      31.78909       25.872017      130.09678    
-807621.42      2.8399872      32.725457      25.903799      129.65089    
-807600.29      3.5245875      35.891595      25.931493      129.20494    
-807603.41      3.8718744      36.432305      25.918396      128.75999    
-807624.1       3.8644718      33.658628      25.906663      128.31597    
-807636.23      3.6859541      32.47855       25.901025      127.87271    
-807646.41      3.7985994      33.332547      25.927957      127.4294     
-807659.06      2.7151064      33.176746      25.8968        126.98746    
-807654.98      3.415769       32.685279      25.868414      126.54682    
-807638.54      2.5655042      31.83349       25.930915      126.10523    
-807617.81      3.2287376      32.835421      25.9611        125.66349    
-807608.67      3.7603108      35.108648      25.907914      125.22361    
-807607.28      3.0757946      35.155214      25.869283      124.78521    
-807618.35      3.0925635      32.641345      25.891639      124.34682    
-807635.11      3.3748123      31.451301      25.900543      123.90875    
-807655.95      2.5637777      31.724337      25.918818      123.47079    
-807655.79      2.3430217      33.262954      25.835045      123.03529    
-807647.99      3.7858492      32.730487      25.890698      122.599      
-807636.25      3.1354888      32.035744      25.947494      122.16194    
-807625.99      3.4390078      33.605064      26.014859      121.7239     
-807606.86      3.3460264      35.777042      26.009972      121.28651    
-807601.36      3.2466589      36.607651      25.949859      120.85094    
-807619.52      3.1692861      33.159216      25.925867      120.4164     
-807643.76      3.0749459      32.886154      25.93145       119.98221    
-807651.99      2.6302302      33.193607      25.91986       119.54875    
-807649.9       3.5974226      34.483908      25.893718      119.1163     
-807647.96      2.8548612      33.773         25.869643      118.68481    
-807641.42      3.1181372      31.988031      25.873275      118.25368    
-807621.39      2.6728048      33.033965      25.901512      117.82238    
-807600.82      3.0490623      36.247276      25.904408      117.39146    
-807604.07      3.302434       36.948071      25.904755      116.96095    
-807625.38      3.2401591      34.700308      25.905365      116.53085    
-807642.35      2.5845503      32.673041      25.921737      116.10084    
-807644.67      4.3281942      35.58653       25.9433        115.67082    
-807653.45      3.5751022      34.754793      25.930389      115.24146    
-807650.53      3.5304498      34.472828      25.899554      114.81311    
-807637.95      2.9356525      32.465385      25.923295      114.38468    
-807610.95      3.5999041      34.806649      25.948289      113.95617    
-807605.11      3.1345226      36.792752      25.89096       113.52915    
-807609.05      3.7194584      36.530392      25.880683      113.1027     
-807624.78      3.1718661      34.076155      25.889565      112.67643    
-807635.27      5.4412372      34.411913      25.904676      112.25025    
-807651.7       3.4075137      34.446576      25.896294      111.82458    
-807655.71      3.3533676      34.90456       25.872032      111.39972    
-807647.71      3.3267809      33.866241      25.855722      110.97549    
-807627.77      4.3771713      34.352491      25.885133      110.55106    
-807617.13      2.8137116      35.320207      25.865745      110.12731    
-807606.57      3.0856774      36.809734      25.869348      109.70382    
-807608         2.8577869      36.599254      25.87306       109.2806     
-807622.07      3.5384324      33.923726      25.91742       108.85691    
-807644.01      3.086344       33.976         25.947621      108.43303    
-807654.23      3.6687322      33.84501       25.858182      108.01102    
-807649.95      3.2465914      34.723091      25.860462      107.58927    
-807642.12      3.6885875      34.101954      25.853233      107.16795    
-807632.72      2.5723044      33.48915       25.888774      106.74632    
-807617.76      3.2398279      35.091315      25.816854      106.3262     
-807601.55      3.5317621      37.243608      25.876081      105.90537    
-807607.56      3.6519509      35.759073      25.898626      105.48445    
-807631.14      3.4908817      33.021041      25.910503      105.06364    
-807646.55      3.2430631      33.262073      25.89724       104.64333    
-807648.72      3.620546       34.038186      25.87328       104.22369    
-807648.54      2.9437954      34.367949      25.842072      103.80481    
-807645.89      3.6110239      32.93731       25.858659      103.38594    
-807632.72      2.9117745      33.826912      25.864222      102.96725    
-807610.57      2.9171329      35.385238      25.915286      102.54802    
-807603.75      3.3842632      36.605624      25.866899      102.12981    
-807615.4       3.7388354      35.327441      25.91917       101.71106    
-807633.14      4.0988889      33.366892      25.893615      101.29296    
-807641.4       4.0965665      34.421141      25.898097      100.87505    
-807650.19      2.9667554      33.388537      25.918734      100.45709    
-807650.9       3.9570584      34.003386      25.889785      100.03981    
-807644.64      2.7343914      32.742191      25.896682      99.622672    
-807625.95      3.3837746      32.99147       25.924337      99.205379    
-807612.24      2.7744446      34.962904      25.914188      98.788482    
-807607.98      3.672265       36.502126      25.867783      98.372493    
-807618.08      3.2021617      34.554994      25.879294      97.95657     
-807630.92      4.1402933      33.343192      25.902407      97.540551    
-807642.98      3.1824861      32.791402      25.895385      97.124862    
-807654.59      3.331891       33.138823      25.889869      96.709477    
-807650.56      3.1813813      34.114758      25.898729      96.294195    
-807641.05      3.9742957      32.426684      25.899034      95.879132    
-807625.83      3.1727887      33.173291      25.920043      95.464005    
-807614.44      3.0767837      35.481224      25.895329      95.049434    
-807609.27      3.2021789      35.730231      25.89          94.635148    
-807615.84      3.5508734      34.893793      25.890468      94.221068    
-807631.69      2.9070873      33.734587      25.881853      93.80731     
-807648.64      2.6333617      33.325926      25.886092      93.393703    
-807650.45      3.1781229      34.953763      25.883532      92.980332    
-807648.07      3.2319512      34.000816      25.871648      92.567314    
-807637.67      4.3237901      34.021663      25.917098      92.153916    
-807628.42      3.459599       33.220663      25.918973      91.740697    
-807612.19      3.6363683      35.076812      25.881253      91.328151    
-807604.48      2.8995101      36.281623      25.904778      90.915505    
-807619.36      2.7633377      33.377444      25.896031      90.50316     
-807636.42      3.1188776      33.856362      25.908697      90.090852    
-807646.58      3.256197       33.786944      25.896476      89.678882    
-807648.89      3.014169       34.460146      25.884028      89.267248    
-807646.36      3.1289693      34.60769       25.941941      88.855108    
-807640.79      2.7701837      32.975238      25.897998      88.443676    
-807621.2       3.1367069      33.964634      25.929562      88.032057    
-807607.98      2.7148046      35.836246      25.923008      87.620698    
-807606.59      3.4218944      37.063129      25.922769      87.209523    
-807622.67      3.6648434      35.023123      25.938867      86.798344    
-807636.57      3.2246189      34.003159      25.950931      86.38721     
-807643.99      3.3043365      34.919197      25.973579      85.976002    
-807646.63      3.2648924      35.620264      25.983756      85.564866    
-807648.04      3.0908541      34.819856      25.923872      85.154572    
-807635.71      3.535005       34.56744       25.923684      84.744451    
-807615.65      3.578979       35.324037      25.931445      84.334415    
-807607.56      3.8692472      36.659539      25.959221      83.924248    
-807611.92      2.9881338      36.248723      25.979852      83.514032    
-807622.02      3.2811152      34.490677      25.963265      83.104165    
-807634.59      2.8597998      33.810635      25.975751      82.694336    
-807646.04      3.1292817      34.377821      26.001073      82.284413    
-807651.58      2.6128971      34.177557      25.966269      81.875021    
-807645.88      3.0197822      33.357114      25.960026      81.465856    
-807629.94      3.0943847      33.923824      25.969405      81.056757    
-807619.12      3.5259402      35.026537      25.975784      80.647756    
-807611.1       3.5986919      36.810972      25.966231      80.23901     
-807610         4.2688499      36.446864      25.934019      79.830741    
-807619.7       3.2277768      34.639126      25.920911      79.422751    
-807639.16      3.0787941      33.82393       25.985524      79.01428     
-807649.86      3.8074798      33.913713      25.952497      78.606283    
-807647.93      2.8099089      34.400329      25.958906      78.198374    
-807641.51      3.6788597      34.322812      25.932788      77.790861    
-807633.6       2.8120201      33.552648      25.914577      77.383664    
-807621.28      2.8843209      34.323187      25.929895      76.976462    
-807609.52      2.7537645      35.657985      25.91507       76.569538    
-807609.16      3.055095       35.612498      25.88167       76.163057    
-807625.96      2.9921864      34.400956      25.90483       75.756495    
-807642.66      4.1793953      32.954188      25.961749      75.34955     
-807645.77      2.8450721      34.412943      26.039346      74.942053    
-807646.79      3.7547983      34.860208      25.987217      74.535167    
-807643.02      4.3014566      34.848465      26.020167      74.128132    
-807635.27      3.4871758      33.613988      25.996677      73.721446    
-807616.17      3.8115339      35.149801      25.971963      73.315112    
-807607.14      3.7542817      36.223951      26.019373      72.908507    
-807616.43      2.9757553      35.689414      26.051053      72.501775    
-807630.39      2.6975302      33.412159      25.989123      72.095706    
-807639.01      3.4148528      33.871274      26.036851      71.689373    
-807645.4       2.9462148      35.039559      26.055116      71.283028    
-807650.88      3.4358511      33.499925      26.025549      70.877065    
-807643.6       2.5404851      33.497741      25.907609      70.472194    
-807628.27      3.6413929      33.402534      25.895637      70.067537    
-807616.2       2.396878       33.738893      25.932901      69.662695    
-807613.7       3.4760539      34.701165      25.931877      69.257979    
-807620.45      2.918832       33.203067      25.9229        68.85345     
-807629.47      2.5159889      32.084478      25.994483      68.448479    
-807642.66      3.8114446      31.715848      26.000799      68.043583    
-807652.2       2.9602511      32.466052      25.987627      67.63891     
-807649.5       2.7140923      33.375788      25.964503      67.234532    
-807640.39      3.3948837      32.353122      25.986684      66.830103    
-807626.91      3.0734619      33.686474      25.958623      66.426001    
-807618.33      3.3334653      34.993926      25.941095      66.022142    
-807613.07      3.4745887      36.249004      25.98261       65.618088    
-807617         2.8898361      34.121308      25.993223      65.214073    
-807630.56      3.5228155      33.858548      26.01326       64.810028    
-807646.14      2.8027973      33.150049      25.971553      64.406396    
-807650.51      3.055587       33.450327      25.943929      64.003067    
-807645.29      3.6964911      33.546071      25.928327      63.599953    
-807639.86      3.4779924      32.899331      25.925191      63.196963    
-807628.61      2.4773861      33.040422      25.956073      62.793862    
-807615.12      2.9794278      34.534481      25.930323      62.391041    
-807607.79      3.2116124      35.198875      25.990878      61.987911    
-807619.82      2.8908125      34.397984      26.005686      61.58479     
-807634.69      3.0132278      33.843447      26.00648       61.181771    
-807645.16      3.4888746      34.83619       26.00222       60.778886    
-807645.36      3.7584909      35.11967       25.964809      60.376349    
-807646.36      3.1512865      33.69893       25.951627      59.973996    
-807639.02      2.9532317      34.128411      25.957527      59.571702    
-807625.38      3.0598191      34.050374      25.946431      59.169576    
-807609.23      2.8049945      35.930695      25.938247      58.767596    
-807612.11      3.0992619      35.1183        26.059056      58.364964    
-807622.08      3.4659818      34.553286      26.026211      57.96264     
-807635.13      4.4568915      33.500939      26.049024      57.560279    
-807642.44      3.2472782      33.634423      26.022016      57.158184    
-807646.74      2.7837088      34.899483      25.978476      56.756446    
-807647.17      3.3797329      34.072218      26.037599      56.354456    
-807633.84      3.6672307      34.186413      26.014272      55.9527      
-807620.86      3.6796601      34.950346      26.023241      55.55099     
-807610.97      3.2079735      35.866878      26.052115      55.149212    
-807615.19      3.1653204      34.973445      25.978881      54.747946    
-807621.42      3.4135225      34.559133      25.938116      54.346998    
-807633.76      2.8616163      32.770323      26.017339      53.945696    
-807643.56      4.3552393      34.537826      26.015491      53.544497    
-807648.04      3.2903628      34.125408      25.940949      53.143794    
-807641.78      3.2860722      34.286048      25.945279      52.743151    
-807632.02      3.6855482      34.20263       25.950879      52.342561    
-807621.44      2.7300581      34.078067      25.935095      51.942137    
-807615.13      3.1200989      36.008778      25.970366      51.541609    
-807610.77      3.5151162      35.743531      25.94495       51.141295    
-807621.18      2.6028758      33.997997      25.9614        50.740978    
-807635.65      3.2115678      33.810367      26.216349      50.339466    
-807645.48      3.2408604      33.154332      26.256011      49.937868    
-807644.13      3.5001602      34.357667      26.207966      49.536612    
-807639.59      3.676187       34.315974      26.246592      49.135276    
-807634.62      4.3139111      33.323942      26.271658      48.73393     
-807621.15      3.213753       34.569754      26.25734       48.33276     
-807610.36      3.5129251      35.714482      26.26126       47.93168     
-807611.53      3.1040273      35.453505      26.258664      47.530717    
-807625.66      2.6287863      33.428126      26.227097      47.130004    
-807637.13      3.261341       33.483613      26.203189      46.7295      
-807644.13      3.1280159      33.581533      26.229883      46.328976    
-807643.73      3.61559        34.849784      26.240988      45.928504    
-807643.28      2.8965162      33.304106      26.287102      45.527932    
-807632.97      3.1792096      33.686116      26.310061      45.127367    
-807616.65      3.0797414      35.83587       26.298782      44.726956    
-807612.08      3.1755058      35.176221      26.295725      44.326661    
-807616.37      2.5044693      34.655769      26.275472      43.926552    
-807627.99      2.7944405      33.549589      26.268424      43.526573    
-807636.1       2.9973333      33.9903        26.269884      43.126686    
-807644.98      3.0939774      33.448063      26.279132      42.726861    
-807647.49      3.6167376      33.728419      26.272555      42.327159    
-807641.84      2.7944694      33.042347      26.289979      41.927487    
-807628.05      3.8058076      34.031983      26.296787      41.527886    
-807620.01      3.5577388      33.684242      26.289434      41.128411    
-807615.87      3.0564331      34.624923      26.26165       40.729136    
-807617.44      3.3661556      33.834536      26.260624      40.329958    
-807627.68      2.6542962      32.719413      26.301149      39.930724    
-807639.21      2.5191116      32.927591      26.287315      39.531635    
-807647.15      3.2658817      33.139789      26.27202       39.132693    
-807644.88      2.4491914      33.353602      26.223806      38.734014    
-807639.67      3.1090976      33.516641      26.239305      38.335366    
-807629.91      2.8064572      32.65461       26.251433      37.936763    
-807621.7       2.5132773      33.138021      26.254364      37.538237    
-807614.6       3.2663124      33.969985      26.256483      37.139792    
-807618.25      2.7424055      33.228011      26.249228      36.741456    
-807630.47      3.1141191      32.512623      26.22798       36.343276    
-807640.76      3.2508451      32.978631      26.245611      35.945121    
-807644.53      3.3601794      33.63284       26.274123      35.546959    
-807642.6       3.4620849      34.212265      26.247333      35.148966    
-807638.99      2.5134159      33.528501      26.281878      34.75095     
-807629.87      2.7130307      32.649771      26.28732       34.353001    
-807618.6       2.9621005      34.380454      26.290511      33.955127    
-807613.11      3.0834869      34.598674      26.283219      33.55736     
-807620.18      3.244255       33.995982      26.28237       33.159678    
-807630.31      3.5428893      33.500597      26.267929      32.76212     
-807640.52      2.7790257      32.995049      26.272512      32.36463     
-807643.2       2.8687766      34.041109      26.281694      31.967195    
-807645.13      2.9335902      33.998337      26.2738        31.569862    
-807636.85      2.9567927      33.223694      26.256946      31.172655    
-807626.6       2.8066274      33.916659      26.250962      30.775541    
-807615.43      3.3844242      35.069958      26.254813      30.378493    
-807614.88      3.3627942      35.554315      26.26075       29.981506    
-807620.48      3.2736351      34.221938      26.272233      29.584566    
-807632.93      3.049752       33.109486      26.252805      29.187752    
-807641.54      3.2404168      34.067484      26.27473       28.790957    
-807645.82      2.9776412      33.702108      26.261631      28.394271    
-807643.24      2.8679028      33.504453      26.247069      27.997693    
-807635.16      3.1626363      32.968406      26.242999      27.601198    
-807622.98      4.3563572      34.148794      26.222866      27.204821    
-807615.82      3.1315461      35.205945      26.262311      26.808423    
-807615.22      3.514306       35.813034      26.247569      26.412131    
-807619.89      3.22888        35.519354      26.238594      26.015929    
-807632.85      3.0879152      34.27103       26.269456      25.619729    
-807642.45      4.2770324      33.890867      26.292529      25.223552    
-807644.63      2.6861658      34.051486      26.275863      24.827482    
-807641.18      2.8089344      33.605946      26.272373      24.43149     
-807634.37      2.9668388      33.113527      26.299788      24.035512    
-807624.33      2.9054376      34.091437      26.305014      23.639596    
-807616.59      2.5466982      34.375641      26.300736      23.24376     
-807614.84      3.3788167      35.09661       26.289383      22.848016    
-807622.93      3.6472494      34.005764      26.282145      22.452355    
-807635.05      3.0325467      33.98104       26.270716      22.056783    
-807642.26      2.9849907      33.911487      26.251859      21.661311    
-807643.56      3.0567012      33.864195      26.252283      21.265905    
-807639.11      3.1075187      34.544693      26.192402      20.870666    
-807634.07      2.6770441      33.293555      26.220774      20.47544     
-807622.28      2.9395708      34.690287      26.273179      20.080188    
-807614.32      2.9146062      35.021725      26.271444      19.685005    
-807615.61      2.8437239      35.542115      26.241279      19.289934    
-807627.06      3.2121414      33.828189      26.270586      18.894879    
-807634.61      3.178766       34.160037      26.287583      18.499863    
-807641.15      2.6876165      34.440522      26.276772      18.104926    
-807643.84      3.5516312      34.037652      26.269709      17.710063    
-807640.6       3.0435129      33.899882      26.257347      17.31528     
-807631.77      3.070685       34.262386      26.273541      16.920535    
-807620.66      3.0500038      35.427978      26.299418      16.525818    
-807613.95      3.7020701      35.739172      26.291165      16.131175    
-807617.31      3.1398189      35.569107      26.287303      15.736598    
-807626.98      3.6664645      34.534531      26.282999      15.342088    
-807636.5       3.6629089      33.219205      26.278257      14.947645    
-807640.54      3.2259858      34.472135      26.257314      14.553286    
-807645.64      3.0220303      33.405726      26.199605      14.15905     
-807638.85      3.1002786      33.409693      26.184173      13.764886    
-807630.73      2.5770382      32.559728      26.255489      13.370698    
-807619.98      2.9185921      34.061187      26.266393      12.976556    
-807616.68      2.739263       34.220095      26.269511      12.582468    
-807618.39      2.9124712      34.535283      26.252899      12.188453    
-807627.94      4.1544135      33.906472      26.244386      11.794502    
-807637.25      3.1653566      33.639199      26.259293      11.400593    
-807642.86      3.1371164      34.086106      26.24277       11.006753    
-807643.88      3.5269748      33.912446      26.185887      10.613015    
-807637.7       3.0841532      33.890039      26.241164      10.219282    
-807629.87      2.8692595      34.124998      26.242996      9.8256017    
-807621         3.0806873      33.753313      26.228444      9.4319848    
-807618.7       3.0840222      34.456805      26.258055      9.0383989    
-807618.63      3.4192574      34.482604      26.264514      8.644862     
-807629.71      3.2116891      33.741198      26.277717      8.2513702    
-807637.57      3.7144135      34.485147      26.281084      7.8579303    
-807642.84      3.5883155      34.348456      26.298321      7.4645343    
-807640.76      3.9067957      34.022196      26.287284      7.0711989    
-807638.33      4.6331644      33.71672       26.31177       6.6779045    
-807627.74      3.1446308      33.762324      26.294853      6.2846728    
-807622.02      3.6191428      34.722415      26.288355      5.8914974    
-807616.09      3.4121803      35.248831      26.284548      5.4983762    
-807620.38      3.3092451      35.609175      26.301688      5.1053003    
-807630.56      3.9236091      34.462128      26.258806      4.7122925    
-807640.07      3.0227461      34.082229      26.282902      4.3193267    
-807640.02      3.080043       35.163322      26.284446      3.9264114    
-807641.93      3.7567139      34.345971      26.284113      3.5335469    
-807635.98      3.1482166      33.422067      26.24901       3.1407412    
-807627.56      3.132022       34.176273      26.223799      2.7479887    
-807617.43      2.8693012      34.913852      26.21365       2.3552842    
-807616.98      3.312305       35.557142      26.18345       1.9626295    
-807619.98      3.2706808      34.560611      26.171432      1.5700195    
-807632.35      3.4617483      33.451581      26.189197      1.1774502    
-807637.11      3.1296738      35.050035      26.205302      0.7849231    
-807641.9       3.4918257      35.111342      26.237576      0.39243885   
-807639.49      3.7287735      35.451432      26.278349      0            
Loop time of 196.208 on 32 procs for 5000 steps with 1080 atoms

Performance: 4.404 ns/day, 5.450 hours/ns, 25.483 timesteps/s, 27.522 katom-step/s
67.1% CPU use with 32 MPI tasks x 1 OpenMP threads

MPI task timing breakdown:
Section |  min time  |  avg time  |  max time  |%varavg| %total
---------------------------------------------------------------
Pair    | 101.04     | 144.25     | 191.77     | 307.7 | 73.52
Neigh   | 0          | 0          | 0          |   0.0 |  0.00
Comm    | 2.1787     | 49.698     | 92.918     | 524.2 | 25.33
Output  | 0.02643    | 0.027036   | 0.029081   |   0.3 |  0.01
Modify  | 1.909      | 1.9158     | 1.9253     |   0.3 |  0.98
Other   |            | 0.3135     |            |       |  0.16

Nlocal:          33.75 ave          48 max          21 min
Histogram: 8 8 0 0 0 0 0 8 0 8
Nghost:        1106.25 ave        1119 max        1092 min
Histogram: 8 0 8 0 0 0 0 0 8 8
Neighs:              0 ave           0 max           0 min
Histogram: 32 0 0 0 0 0 0 0 0 0
FullNghs:       5494.5 ave        7896 max        3378 min
Histogram: 8 8 0 0 0 0 0 8 0 8

Total # of neighbors = 175824
Ave neighs/atom = 162.8
Neighbor list builds = 0
Dangerous builds = 0

reset_timestep 0


variable interval equal 1000
thermo 10

variable nintervals equal $(v_PERIOD/v_interval)
variable nintervals equal 100
variable efield equal 1e-2*36.36*cos((step/${PERIOD})*2*3.14)
variable efield equal 1e-2*36.36*cos((step/100000)*2*3.14)
fix born all addbornforce 0.0 0.0 v_efield

variable Px equal f_born[1]+c_polarization[1]
variable Py equal f_born[2]+c_polarization[2]
variable Pz equal (f_born[3]+c_polarization[3])/vol
variable pe equal pe

fix aveP all ave/time 1 $(v_interval/2) ${interval} v_efield v_Pz v_pe f_born file Pz.${MODEL}.${STRUCTURE}.${TEMP}.$L.${ITER}
fix aveP all ave/time 1 500 ${interval} v_efield v_Pz v_pe f_born file Pz.${MODEL}.${STRUCTURE}.${TEMP}.$L.${ITER}
fix aveP all ave/time 1 500 1000 v_efield v_Pz v_pe f_born file Pz.${MODEL}.${STRUCTURE}.${TEMP}.$L.${ITER}
fix aveP all ave/time 1 500 1000 v_efield v_Pz v_pe f_born file Pz.BaTiO3-E0.${STRUCTURE}.${TEMP}.$L.${ITER}
fix aveP all ave/time 1 500 1000 v_efield v_Pz v_pe f_born file Pz.BaTiO3-E0.BaTiO3-sc333.${TEMP}.$L.${ITER}
fix aveP all ave/time 1 500 1000 v_efield v_Pz v_pe f_born file Pz.BaTiO3-E0.BaTiO3-sc333.310.$L.${ITER}
fix aveP all ave/time 1 500 1000 v_efield v_Pz v_pe f_born file Pz.BaTiO3-E0.BaTiO3-sc333.310.2.${ITER}
fix aveP all ave/time 1 500 1000 v_efield v_Pz v_pe f_born file Pz.BaTiO3-E0.BaTiO3-sc333.310.2.0

thermo_style custom step time temp press pe f_born v_efield v_Pz spcpu cpuremain

# dump 4a all custom 1000 dump.hyst.${MODEL}.${STRUCTURE}.${TEMP}.$L.${ITER}.bin id type xu yu zu fx fy fz
# dump_modify 4a sort id

fix nvt all nvt temp ${TEMP} ${TEMP} $(100*dt)
fix nvt all nvt temp 310 ${TEMP} $(100*dt)
fix nvt all nvt temp 310 310 $(100*dt)
fix nvt all nvt temp 310 310 0.2000000000000000111

run $(v_PERIOD)
run 100000
WARNING: non-constant efield is experimental, strongly distrust scalar/vector output (src/fix_addbornforce.cpp:193)
Per MPI rank memory allocation (min/avg/max) = 3.516 | 3.516 | 3.516 Mbytes
   Step          Time           Temp          Press          PotEng         f_born        v_efield         v_Pz          S/CPU         CPULeft    
         0   0              300.50685      125472.92     -807639.49     -291.27124      0.3636         0.054779901    0              0            
        10   0.02           319.55798      131314.04     -807634.29     -299.21228      0.36359993     0.056273397    27.69596       3610.2976    
        20   0.04           320.40025      138004.33     -807624.5      -309.16545      0.36359971     0.058145344    27.664639      3611.9657    
        30   0.06           315.85501      144612.24     -807617.56     -315.5125       0.36359935     0.059339104    27.731536      3609.3769    
        40   0.08           315.85576      143784.43     -807617.38     -315.75865      0.36359885     0.059385481    27.773321      3606.5461    
        50   0.1            317.24445      140571.16     -807621.62     -311.77047      0.36359821     0.058635518    27.742776      3605.4963    
        60   0.12           333.56028      132031.48     -807633.58     -302.20554      0.36359742     0.056836738    27.807054      3603.2883    
        70   0.14           312.16826      128015.82     -807637.55     -295.33791      0.36359649     0.055545265    27.800456      3601.7302    
        80   0.16           295.86236      122199.4      -807641.99     -288.81723      0.36359541     0.054319057    27.762459      3601.0867    
        90   0.18           303.23443      127393.62     -807638.79     -293.09782      0.36359419     0.055124309    27.762088      3600.5115    
       100   0.2            308.18202      129652.79     -807633.57     -299.3023       0.36359283     0.056291427    27.728979      3600.4088    
       110   0.22           327.68961      139585.47     -807624.42     -311.24886      0.36359132     0.058538525    27.732202      3600.2213    
       120   0.24           303.91939      143014.28     -807618.42     -314.3163       0.36358968     0.059115705    27.722225      3600.1129    
       130   0.26           307.86948      145611.52     -807617.63     -315.69672      0.36358788     0.059375624    27.705151      3600.1366    
       140   0.28           322.41927      136557.62     -807626.87     -308.86866      0.36358595     0.058091725    27.672531      3600.4086    
       150   0.3            311.72836      133757.4      -807631.55     -302.82741      0.36358387     0.056955819    27.713989      3600.2364    
       160   0.32           293.55608      124604.93     -807640.16     -291.98834      0.36358165     0.05491754     27.725162      3599.95      
       170   0.34           288.99769      125623.52     -807640.91     -290.65187      0.36357928     0.054666531    27.724909      3599.6564    
       180   0.36           297.57908      125255.62     -807640.67     -292.48913      0.36357677     0.055012467    27.726128      3599.3471    
       190   0.38           316.66071      133838.59     -807632.23     -303.79135      0.36357412     0.057138649    27.724163      3599.0456    
       200   0.4            311.03196      138176.25     -807625.4      -310.09901      0.36357132     0.058325475    27.72645       3598.7233    
       210   0.42           304.0551       144560.39     -807618.69     -315.90949      0.36356838     0.059418829    27.720438      3598.4345    
       220   0.44           300.42936      141368.69     -807620.43     -313.95942      0.3635653      0.059052543    27.649115      3598.5613    
       230   0.46           306.86092      137936.2      -807625.45     -309.89193      0.36356207     0.058288008    27.647636      3598.654     
       240   0.48           308.09944      129882.47     -807635.63     -300.01833      0.3635587      0.056431392    27.729559      3598.2644    
       250   0.5            283.84603      126198.4      -807639.87     -292.41623      0.36355519     0.05500202     27.722719      3597.913     
       260   0.52           285.5348       124521.46     -807642.44     -290.12762      0.36355153     0.054572094    27.70973       3597.6256    
       270   0.54           302.53574      126836.14     -807640.26     -294.69901      0.36354773     0.055432537    27.654119      3597.6008    
       280   0.56           306.67592      133916.15     -807630.94     -304.64278      0.36354379     0.05730357     27.662945      3597.5109    
       290   0.58           309.15807      139287.27     -807625.34     -310.62503      0.3635397      0.058429492    27.728711      3597.1074    
       300   0.6            293.99479      145094.23     -807618.6      -315.11437      0.36353547     0.05927464     27.725731      3596.7198    
       310   0.62           298.5334       140874.29     -807620.3      -314.07669      0.3635311      0.059080159    27.722606      3596.3468    
       320   0.64           310.91572      137851.98     -807627.13     -308.78197      0.36352658     0.058084905    27.72127       3595.98      
       330   0.66           313.37         128072.83     -807638.97     -297.26315      0.36352192     0.055918818    27.730864      3595.576     
       340   0.68           289.01741      126755.39     -807640.29     -292.24226      0.36351712     0.054975054    27.723878      3595.2011    
       350   0.7            294.18019      122181.16     -807642.85     -290.44138      0.36351217     0.054637025    27.717932      3594.8491    
       360   0.72           295.43382      129596.28     -807635.37     -297.90446      0.36350708     0.056041745    27.720996      3594.4855    
       370   0.74           317.01348      131565.06     -807633.89     -302.47124      0.36350185     0.056901665    27.650263      3594.3706    
       380   0.76           303.0952       142268.78     -807621.48     -312.65722      0.36349647     0.058818749    27.651812      3594.2374    
       390   0.78           297.19218      141956.77     -807618.6      -314.71998      0.36349095     0.059207705    27.740712      3593.7965    
       400   0.8            316.67791      143742.95     -807621.17     -314.70372      0.36348529     0.059205568    27.716038      3593.4395    
       410   0.82           312.89675      133997.51     -807630.4      -304.94464      0.36347948     0.057370498    27.716993      3593.0793    
       420   0.84           312.14152      130548.6      -807636.28     -298.73268      0.36347353     0.056202736    27.643676      3592.9459    
       430   0.86           289.83265      123946.17     -807639.53     -292.36996      0.36346744     0.055006595    27.654279      3592.7698    
       440   0.88           297.32825      126433.26     -807639.8      -293.01026      0.3634612      0.055128007    27.649558      3592.5993    
       450   0.9            306.96207      127593.38     -807638.31     -295.86413      0.36345482     0.055665922    27.719547      3592.2182    
       460   0.92           309.67665      136477.96     -807628.52     -305.91467      0.3634483      0.057557933    27.646595      3592.044     
       470   0.94           309.33349      139623.58     -807622.89     -311.52383      0.36344163     0.058614373    27.653729      3591.8421    
       480   0.96           314.01876      143343.21     -807619.28     -315.56864      0.36343482     0.059376532    27.651465      3591.6396    
       490   0.98           307.95754      139928.18     -807623.31     -310.6718       0.36342786     0.058456274    27.7255        3591.2346    
       500   1              305.07195      135989.4      -807628.07     -305.36195      0.36342077     0.05745829     27.721919      3590.8406    
       510   1.02           303.49635      128450.21     -807635.64     -9518.5185      0.36341353     0.055971354    27.497506      3591.0222    
       520   1.04           305.68688      125606.85     -807640.42     -9369.5421      0.36340614     0.055096453    27.481884      3591.2223    
       530   1.06           300.06919      126109.62     -807639.41     -9372.3467      0.36339862     0.055114087    27.565925      3591.193     
       540   1.08           319.13936      130351.35     -807636.23     -9556.4318      0.36339095     0.056197786    27.653761      3590.9392    
       550   1.1            318.15812      135950.57     -807628.16     -9806.9123      0.36338313     0.057672007    27.548683      3590.9307    
       560   1.12           321.66305      140573.31     -807622.79     -9989.5633      0.36337518     0.058747419    27.681407      3590.6006    
       570   1.14           310.90741      142846.6      -807619.59     -10040.905      0.36336707     0.059050668    27.669398      3590.2967    
       580   1.16           314.9269       138896.9      -807623.61     -9927.1526      0.36335883     0.058383015    27.708094      3589.9043    
       590   1.18           320.51433      134965.99     -807629.43     -9757.0193      0.36335044     0.057383761    27.652388      3589.6355    
       600   1.2            306.53231      128101.54     -807636.32     -9475.9267      0.36334191     0.055731885    27.636606      3589.3978    
       610   1.22           299.53911      127883.64     -807637.92     -9383.7686      0.36333324     0.055191182    27.645763      3589.1366    
       620   1.24           305.12996      124559.95     -807639.46     -9359.5002      0.36332442     0.055049782    27.647989      3588.8674    
       630   1.26           324.57424      132244.92     -807633.67     -9625.8477      0.36331546     0.056617755    27.576257      3588.7437    
       640   1.28           309.78355      135892.34     -807626.3      -9795.0527      0.36330636     0.057614436    27.588339      3588.5878    
       650   1.3            327.44789      142539.37     -807621.7      -10013.548      0.36329711     0.058901122    27.628441      3588.3452    
       660   1.32           311.54549      140291.28     -807620.55     -9980.1793      0.36328772     0.058706361    27.622882      3588.1099    
       670   1.34           313.72767      140242.52     -807621.82     -9945.4402      0.36327819     0.058503551    27.611621      3587.8927    
       680   1.36           308.34314      132270.05     -807629.6      -9673.3226      0.36326851     0.056904348    27.563803      3587.763     
       690   1.38           302.47995      130714.43     -807634.62     -9480.4702      0.36325869     0.055771381    27.513453      3587.7223    
       700   1.4            300.51489      124865.38     -807639.26     -9323.1274      0.36324873     0.054847275    27.640452      3587.4352    
       710   1.42           308.08965      129438.61     -807635.79     -9464.7698      0.36323863     0.055682096    27.627865      3587.1692    
       720   1.44           325.50049      130637.73     -807634.35     -9590.0917      0.36322838     0.056420968    27.611541      3586.93      
       730   1.46           340.16425      138205.65     -807627.18     -9880.9699      0.36321798     0.058133942    27.623372      3586.6663    
       740   1.48           309.32448      141172.88     -807619.61     -9988.0866      0.36320745     0.05876586     27.575704      3586.4839    
       750   1.5            313.2013       143381.44     -807618.73     -10031.926      0.36319677     0.059025528    27.646734      3586.1734    
       760   1.52           314.64934      137540.38     -807624.27     -9862.9587      0.36318595     0.058033093    27.643873      3585.8665    
       770   1.54           311.07136      133947.14     -807630.03     -9663.3286      0.36317498     0.056860198    27.570182      3585.6828    
       780   1.56           305.25134      127851.87     -807636.28     -9437.8589      0.36316387     0.055535206    27.494454      3585.6215    
       790   1.58           309.0639       126508.83     -807638.97     -9370.4507      0.36315262     0.055140264    27.513247      3585.5213    
       800   1.6            319.7861       127232.59     -807638.35     -9442.4892      0.36314122     0.055565917    27.55136       3585.3523    
       810   1.62           323.79693      132838.14     -807632.82     -9644.0272      0.36312968     0.056753705    27.513606      3585.2395    
       820   1.64           312.9684       138597.11     -807624.61     -9866.0412      0.363118       0.058062092    27.523624      3585.1045    
       830   1.66           303.67724      142708.82     -807618.9      -10014.616      0.36310618     0.058938381    27.551301      3584.9204    
       840   1.68           308.36401      140605.77     -807620.83     -9981.0226      0.36309421     0.058742612    27.637208      3584.5989    
       850   1.7            317.88776      137239.74     -807627.55     -9815.8915      0.3630821      0.057772672    27.587234      3584.3529    
       860   1.72           313.33953      131807.6      -807633.32     -9619.7995      0.36306984     0.056620458    27.62745       3584.0433    
       870   1.74           303.90546      127627.1      -807637.42     -9454.7656      0.36305745     0.055650998    27.581347      3583.8015    
       880   1.76           302.62497      126450.97     -807639.99     -9375.546       0.3630449      0.055186616    27.635546      3583.4769    
       890   1.78           298.68289      128529.03     -807636.49     -9478.8095      0.36303222     0.055796398    27.575568      3583.239     
       900   1.8            310.22052      133890.05     -807631.45     -9700.7151      0.36301939     0.057104648    27.643709      3582.9       
       910   1.82           299.58269      138288.6      -807623.99     -9898.6117      0.36300642     0.058271677    27.655311      3582.5439    
       920   1.84           305.99404      141709.11     -807622.09     -9991.4516      0.36299331     0.058820337    27.648214      3582.1977    
       930   1.86           314.27445      139074.22     -807625.63     -9920.7605      0.36298005     0.058406307    27.646719      3581.8533    
       940   1.88           301.31887      137839.09     -807626.76     -9827.7358      0.36296665     0.057860781    27.652224      3581.5009    
       950   1.9            308.42218      129103.29     -807635.64     -9580.8993      0.36295311     0.056409635    27.648759      3581.153     
       960   1.92           288.26783      129121.03     -807637.24     -9437.2215      0.36293942     0.055565796    27.649271      3580.8042    
       970   1.94           292.28513      124821.8      -807640.69     -9350.3804      0.36292559     0.055056579    27.57553       3580.5538    
       980   1.96           295.20039      130610.48     -807634.17     -9568.4176      0.36291162     0.056342587    27.636175      3580.2207    
       990   1.98           310.96888      132381.2      -807631.96     -9712.4179      0.3628975      0.057192742    27.584147      3579.9554    
      1000   2              304.96419      140793.29     -807623.86     -9939.8665      0.36288325     0.0585344      27.510309      3579.7844    
      1010   2.02           305.32461      138588.7      -807624.15     -310.45514      0.36286884     0.0585055      27.723858      3579.3351    
      1020   2.04           301.33696      141568.34     -807622.78     -311.03532      0.3628543      0.058617184    27.722302      3578.8896    
      1030   2.06           316.62761      132520.96     -807632.3      -303.7027       0.36283961     0.057237608    27.729888      3578.4362    
      1040   2.08           291.80368      132586.57     -807632.45     -299.80288      0.36282478     0.056504935    27.713893      3578.0044    
      1050   2.1            300.51881      124705.71     -807641.66     -291.77131      0.3628098      0.054993465    27.736211      3577.5466    
      1060   2.12           304.81841      127691.3      -807638.55     -295.1845       0.36279469     0.055639107    27.710665      3577.1217    
      1070   2.14           298.5242       129168.01     -807635.25     -297.6023       0.36277943     0.056097196    27.653469      3576.767     
      1080   2.16           311.45625      136786.78     -807628.72     -305.6373       0.36276402     0.057614218    27.721701      3576.3306    
      1090   2.18           299.46274      137814.65     -807623.96     -308.56625      0.36274848     0.058168832    27.686927      3575.9367    
      1100   2.2            298.57731      142619.85     -807619.74     -312.37421      0.36273279     0.058889231    27.677775      3575.5541    
      1110   2.22           309.62399      137952.91     -807624.05     -309.4433       0.36271695     0.058339237    27.648951      3575.2056    
      1120   2.24           312.25666      134720.04     -807629.48     -304.02393      0.36270098     0.05732005     27.652678      3574.8525    
      1130   2.26           315.888        128336.12     -807637.89     -295.85978      0.36268486     0.055783277    27.647531      3574.505     
      1140   2.28           309.63459      126604.79     -807639.63     -292.99227      0.3626686      0.055245096    27.651813      3574.1525    
      1150   2.3            306.36021      127322.21     -807637.52     -294.49752      0.36265219     0.05553143     27.639989      3573.8131    
      1160   2.32           306.30865      130926.37     -807633.11     -298.70299      0.36263564     0.056326996    27.57783       3573.5429    
      1170   2.34           319.35573      136496.91     -807628.58     -304.89294      0.36261895     0.057496895    27.647847      3573.1935    
      1180   2.36           305.92937      140554.58     -807621.22     -310.29692      0.36260212     0.058518697    27.652717      3572.8385    
      1190   2.38           312.03582      143387.55     -807619.6      -312.60892      0.36258514     0.058957475    27.658395      3572.4772    
      1200   2.4            322.05514      138042.53     -807625.4      -308.12411      0.36256802     0.058114392    27.723972      3572.0456    
      1210   2.42           323.12623      134359.03     -807630.59     -302.93172      0.36255076     0.057137791    27.73019       3571.6085    
      1220   2.44           303.96207      129362.89     -807635.49     -295.3861       0.36253335     0.055717241    27.721895      3571.1814    
      1230   2.46           309.86387      128235.5      -807637.71     -293.87764      0.3625158      0.05543539     27.715         3570.7626    
      1240   2.48           308.52536      126238.69     -807637.68     -293.75         0.36249811     0.055414018    27.73099       3570.3281    
      1250   2.5            310.78662      133073.02     -807631.75     -299.9632       0.36248028     0.056588882    27.717554      3569.9087    
      1260   2.52           318.47884      136049.8      -807627.05     -305.76513      0.3624623      0.057686293    27.652535      3569.5566    
      1270   2.54           320.40618      141590.79     -807621.74     -311.29104      0.36244418     0.058731759    27.723752      3569.1322    
      1280   2.56           312.17308      140061.71     -807622.02     -309.99813      0.36242592     0.058490772    27.770765      3568.6617    
      1290   2.58           326.70431      139374.86     -807626.29     -307.67179      0.36240751     0.058054784    27.689557      3568.2738    
      1300   2.6            311.86009      131683.06     -807631.76     -300.12676      0.36238896     0.056634005    27.71596       3567.86      
      1310   2.62           315.50486      129351.38     -807636.19     -296.1479       0.36237027     0.055886076    27.727988      3567.4353    
      1320   2.64           309.50783      125810.18     -807639.25     -292.38744      0.36235143     0.055179308    27.717704      3567.0216    
      1330   2.66           309.84104      130301.67     -807635.59     -296.06888      0.36233245     0.055876995    27.648963      3566.6753    
      1340   2.68           308.67631      132727.33     -807631.15     -300.49476      0.36231333     0.056715284    27.634005      3566.3431    
      1350   2.7            305.94308      139388.24     -807623.78     -307.52565      0.36229407     0.058045378    27.661002      3565.9847    
      1360   2.72           315.22927      139683.88     -807623.11     -309.55258      0.36227466     0.058431089    27.650404      3565.6362    
      1370   2.74           314.16239      140878.02     -807622.75     -309.6738       0.36225511     0.058457125    27.647692      3565.2902    
      1380   2.76           311.39232      135302.09     -807627.31     -304.8991       0.36223542     0.057558935    27.652893      3564.939     
      1390   2.78           314.83078      132253.84     -807632.22     -300.45406      0.36221558     0.056722904    27.648525      3564.5918    
      1400   2.8            306.98972      127870.53     -807636.75     -294.91785      0.3621956      0.055680791    27.636443      3564.2554    
      1410   2.82           307.20396      128749.56     -807637.45     -294.27064      0.36217548     0.055561685    27.660682      3563.8966    
      1420   2.84           305.65736      129088.76     -807635.84     -295.81998      0.36215522     0.055857343    27.650399      3563.547     
      1430   2.86           306.9031       134786.93     -807628.58     -303.30318      0.36213481     0.057273564    27.732462      3563.1235    
      1440   2.88           317.92288      137629.86     -807626.44     -307.0769       0.36211426     0.057989456    27.726973      3562.7058    
      1450   2.9            309.56566      140527.42     -807622.89     -309.50637      0.36209357     0.058451585    27.729572      3562.2866    
      1460   2.92           310.03521      139128.22     -807624.25     -308.33379      0.36207273     0.05823349     27.719373      3561.8771    
      1470   2.94           308.61243      136455.87     -807627.51     -304.99226      0.36205176     0.05760573     27.717731      3561.4697    
      1480   2.96           303.56616      130917.47     -807632.95     -298.90918      0.36203064     0.056460075    27.673871      3561.101     
      1490   2.98           300.55456      128822.34     -807637.59     -293.90921      0.36200937     0.055518907    27.711647      3560.6998    
      1500   3              299.42844      128227.99     -807637.11     -294.30409      0.36198796     0.055596786    27.707309      3560.3029    
      1510   3.02           305.32478      130117.34     -807634.38     -9534.69        0.36196642     0.056290595    27.533624      3560.0549    
      1520   3.04           311.56431      134555.71     -807630.18     -9701.0962      0.36194472     0.057276451    27.689423      3559.6731    
      1530   3.06           317.82472      137732.54     -807628.11     -9800.6883      0.36192289     0.057867946    27.649454      3559.3251    
      1540   3.08           308.67509      139847.86     -807623.74     -9903.7542      0.36190091     0.058480047    27.651414      3558.9753    
      1550   3.1            294.50555      138983.8      -807623.07     -9868.2815      0.36187879     0.058274148    27.658213      3558.6197    
      1560   3.12           306.5584       134992.92     -807630.38     -9691.1794      0.36185653     0.057231847    27.709776      3558.2215    
      1570   3.14           303.94679      129820.45     -807635.7      -9513.385       0.36183412     0.05618535     27.578368      3557.9317    
      1580   3.16           292.12914      129421.04     -807635.96     -9458.1826      0.36181157     0.05586281     27.641261      3557.5895    
      1590   3.18           301.67536      127155.27     -807638.38     -9432.0926      0.36178888     0.055712209    27.509306      3557.3545    
      1600   3.2            298.58178      131847.39     -807633.84     -9566.2094      0.36176605     0.056507958    27.541791      3557.0915    
      1610   3.22           304.7848       133755.79     -807631.31     -9684.562       0.36174307     0.057210705    27.59894       3556.7813    
      1620   3.24           306.3978       138713.53     -807625.67     -9878.7842      0.36171995     0.058361786    27.567074      3556.4959    
      1630   3.26           291.7277       138464.36     -807623.72     -9880.9617      0.36169669     0.058378404    27.636822      3556.1544    
      1640   3.28           296.81826      138815.55     -807626.72     -9810.7642      0.36167329     0.057967416    27.599212      3555.8421    
      1650   3.3            307.12097      132139.75     -807633.89     -9633.2673      0.36164974     0.056922372    27.709175      3555.4435    
      1660   3.32           300.77342      130918.87     -807635.26     -9562.659       0.36162605     0.056508854    27.647778      3555.0929    
      1670   3.34           286.4735       127805.31     -807638.3      -9405.7226      0.36160222     0.055585129    27.609046      3554.772     
      1680   3.36           292.21293      128912.03     -807638.14     -9436.2276      0.36157824     0.055769103    27.544249      3554.5004    
      1690   3.38           291.13919      130473.47     -807635.09     -9532.9834      0.36155413     0.056344698    27.628444      3554.1635    
      1700   3.4            299.21227      136144.12     -807628.56     -9776.1678      0.36152987     0.057785916    27.664605      3553.7989    
      1710   3.42           289.93861      137639.77     -807625.47     -9833.3891      0.36150546     0.05812807     27.716792      3553.3952    
      1720   3.44           301.81969      139536.17     -807625.74     -9871.0906      0.36148092     0.058354896    27.649641      3553.042     
      1730   3.46           300.15634      136492.67     -807627.83     -9793.5882      0.36145623     0.05790068     27.654276      3552.6854    
      1740   3.48           305.76083      133552.35     -807631.73     -9685.5425      0.3614314      0.057265836    27.640039      3552.3391    
      1750   3.5            303.54068      129451.57     -807637.45     -9485.5354      0.36140643     0.056087169    27.645936      3551.9884    
      1760   3.52           287.34909      128503.69     -807636.84     -9422.9405      0.36138131     0.055720923    27.64702       3551.6368    
      1770   3.54           295.55094      128964.61     -807636.39     -9464.3254      0.36135605     0.055969557    27.59526       3551.3227    
      1780   3.56           297.53923      131515.71     -807632.14     -9598.2513      0.36133065     0.05676555     27.547874      3551.0424    
      1790   3.58           304.50145      135800.87     -807628.32     -9737.5081      0.36130511     0.057593208    27.66228       3550.6789    
      1800   3.6            318.73257      137547.68     -807627.06     -9828.5001      0.36127942     0.05813552     27.646432      3550.3267    
      1810   3.62           291.63582      139472.12     -807621.98     -9857.3865      0.3612536      0.058310551    27.585833      3550.0175    
      1820   3.64           320.4213       135102.37     -807629.57     -9731.8678      0.36122763     0.057572194    27.747596      3549.5936    
      1830   3.66           309.99182      132940.39     -807631.99     -9598.5284      0.36120151     0.056787485    27.702543      3549.202     
      1840   3.68           306.37488      128849.82     -807636        -9447.5453      0.36117526     0.055898291    27.707336      3548.8073    
      1850   3.7            297.65873      129244.19     -807635.21     -9424.141       0.36114886     0.05576389     27.658999      3548.4465    
      1860   3.72           301.47458      129530.88     -807634.83     -9451.4822      0.36112232     0.055929782    27.769725      3548.0096    
      1870   3.74           318.66042      134230.56     -807631.3      -9634.0414      0.36109564     0.057014301    27.635461      3547.6653    
      1880   3.76           323.30246      135469.6      -807628.87     -9730.2024      0.36106881     0.05758766     27.691951      3547.2823    
      1890   3.78           303.29984      140851.68     -807622.61     -9835.6637      0.36104184     0.058216175    27.642248      3546.9332    
      1900   3.8            310.50389      138069.59     -807624.3      -9813.6144      0.36101474     0.05809003     27.647676      3546.5804    
      1910   3.82           317.19618      136660.14     -807627.8      -9725.9292      0.36098748     0.057575339    27.652434      3546.2242    
      1920   3.84           305.67961      131820.49     -807631.31     -9560.6872      0.36096009     0.056601438    27.653865      3545.8671    
      1930   3.86           313.39987      130923.28     -807635        -9472.2164      0.36093255     0.056081949    27.681415      3545.4916    
      1940   3.88           296.39071      128650.77     -807635        -9395.6859      0.36090487     0.055633103    27.544679      3545.2069    
      1950   3.9            313.54456      130914.7      -807634.78     -9473.6544      0.36087705     0.056099089    27.55755       3544.9128    
      1960   3.92           317.29369      132478.55     -807631.32     -9601.9457      0.36084909     0.056863184    27.567653      3544.6114    
      1970   3.94           316.59532      137664.42     -807625.96     -9766.7896      0.36082098     0.057843903    27.575118      3544.3046    
      1980   3.96           308.73064      138214.03     -807623.62     -9805.3529      0.36079273     0.058076841    27.612864      3543.9726    
      1990   3.98           312.37149      138609.63     -807624.19     -9801.1696      0.36076434     0.058056632    27.573142      3543.666     
      2000   4              314.17258      134672.35     -807627.67     -9697.3615      0.36073581     0.057446275    27.687506      3543.2854    
      2010   4.02           307.70374      133357.06     -807630.61     -299.09827      0.36070713     0.056703085    27.662873      3542.9207    
      2020   4.04           311.89319      129654.59     -807635.53     -294.73384      0.36067831     0.055880141    27.724622      3542.517     
      2030   4.06           312.88482      129794.84     -807635.6      -294.70762      0.36064935     0.055879657    27.709545      3542.1231    
      2040   4.08           315.01165      129792.97     -807635.29     -295.39177      0.36062025     0.056013897    27.658192      3541.7618    
      2050   4.1            318.91582      134760.09     -807630.48     -300.73913      0.36059101     0.05703252     27.730029      3541.3557    
      2060   4.12           313.46009      136785.93     -807625.89     -304.63613      0.36056162     0.05777626     27.725534      3540.9529    
      2070   4.14           311.31066      139312.32     -807623.95     -306.25637      0.36053209     0.058088306    27.730432      3540.5474    
      2080   4.16           305.9849       137625.6      -807625.23     -304.30112      0.36050242     0.057722201    27.725067      3540.1457    
      2090   4.18           308.93466      135488.72     -807627.32     -302.65171      0.36047261     0.057414075    27.72728       3539.743     
      2100   4.2            310.8388       132044.15     -807631.51     -298.75104      0.36044265     0.056678815    27.730899      3539.3385    
      2110   4.22           309.37591      129557.79     -807635.52     -294.56319      0.36041256     0.055888967    27.702415      3538.9516    
      2120   4.24           303.97752      129064.32     -807635.83     -293.55589      0.36038232     0.055702519    27.645616      3538.5992    
      2130   4.26           321.92513      129931.48     -807635.4      -296.64326      0.36035193     0.056293098    27.652519      3538.2425    
      2140   4.28           305.07317      133762.06     -807628.92     -300.90123      0.36032141     0.057105956    27.717865      3537.8469    
      2150   4.3            311.7125       136286.04     -807627.6      -303.24366      0.36029075     0.057555409    27.656135      3537.4882    
      2160   4.32           306.69372      138198.58     -807625.18     -305.11513      0.36025994     0.057915564    27.71977       3537.0919    
      2170   4.34           311.45009      137615.25     -807626.19     -304.92732      0.36022899     0.057884888    27.673026      3536.7233    
      2180   4.36           306.67818      135248.51     -807628.79     -301.76092      0.36019789     0.057288749    27.716486      3536.3295    
      2190   4.38           308.41192      131737.16     -807633.76     -297.18641      0.36016666     0.05642518     27.732736      3535.9265    
      2200   4.4            308.2758       129007        -807637.02     -294.07522      0.36013528     0.05583934     27.705599      3535.5395    
      2210   4.42           293.28691      129718.35     -807634.69     -294.51506      0.36010377     0.055927751    27.649192      3535.1854    
      2220   4.44           312.55984      130241.32     -807635.3      -296.78354      0.36007211     0.056363486    27.652727      3534.8292    
      2230   4.46           301.21869      133246.2      -807630.53     -300.17012      0.3600403      0.057011683    27.720628      3534.4341    
      2240   4.48           303.26708      136405.21     -807627.1      -304.06874      0.36000836     0.057757276    27.649198      3534.08      
      2250   4.5            302.2915       138647.5      -807625.36     -305.89984      0.35997627     0.058110269    27.667352      3533.7155    
      2260   4.52           301.15589      137075.15     -807626.92     -304.26143      0.35994404     0.057804204    27.716963      3533.323     
      2270   4.54           297.04543      134317.33     -807629.96     -300.78268      0.35991167     0.057148444    27.726544      3532.9255    
      2280   4.56           299.48657      131321.35     -807634.27     -296.8356       0.35987916     0.056403598    27.716105      3532.5341    
      2290   4.58           289.4657       129139.79     -807635.93     -293.80594      0.35984651     0.055832978    27.720537      3532.1405    
      2300   4.6            302.9868       128355.71     -807637.63     -293.97431      0.35981371     0.055870066    27.651435      3531.7855    
      2310   4.62           303.09244      130537.88     -807635.12     -296.55958      0.35978077     0.05636656     27.660928      3531.4252    
      2320   4.64           309.3785       134828.83     -807631.19     -301.37459      0.35974769     0.057287007    27.725765      3531.0293    
      2330   4.66           298.50157      136619.33     -807627.44     -303.61748      0.35971447     0.057718677    27.71823       3530.6378    
      2340   4.68           307.70305      137626.04     -807627.74     -304.46527      0.35968111     0.057885215    27.729782      3530.2402    
      2350   4.7            305.37643      135507.89     -807628.83     -303.00036      0.3596476      0.057612071    27.719024      3529.8489    
      2360   4.72           290.94504      134971.34     -807629.06     -300.6129       0.35961396     0.057163472    27.734756      3529.4493    
      2370   4.74           303.90884      129510.42     -807635.74     -295.53524      0.35958017     0.056203202    27.717677      3529.0591    
      2380   4.76           296.87892      129616.14     -807636.49     -293.58438      0.35954624     0.055837468    27.716325      3528.67      
      2390   4.78           301.32417      128051.52     -807637.03     -293.46695      0.35951216     0.055820424    27.654565      3528.314     
      2400   4.8            309.43682      131905.23     -807633.2      -298.09034      0.35947795     0.056705237    27.732537      3527.9166    
      2410   4.82           313.46175      134383.95     -807630.59     -300.96009      0.35944359     0.057256616    27.717371      3527.5275    
      2420   4.84           302.74577      137771.81     -807625.85     -303.76238      0.35940909     0.057795288    27.718192      3527.1382    
      2430   4.86           310.14028      137061.61     -807626.27     -303.938        0.35937446     0.057834277    27.666465      3526.7763    
      2440   4.88           314.12047      136087.79     -807627.2      -303.10072      0.35933967     0.057680539    27.72685       3526.3828    
      2450   4.9            307.88292      134188.03     -807629.3      -299.75462      0.35930475     0.057049316    27.724311      3525.991     
      2460   4.92           301.55919      130796.4      -807634.13     -293.64714      0.35926969     0.055892395    27.719104      3525.602     
      2470   4.94           308.92379      130186.58     -807635.5      -292.93649      0.35923448     0.055762595    27.710467      3525.2178    
      2480   4.96           306.698        129688.88     -807633.94     -294.03217      0.35919913     0.055976674    27.644714      3524.8675    
      2490   4.98           315.34243      133669.07     -807631.58     -297.32627      0.35916364     0.056609385    27.657823      3524.5103    
      2500   5              317.02351      134194.5      -807630.02     -299.00821      0.35912801     0.056935265    27.64813       3524.1581    
[...]
     98740   197.48         301.33651      133937.83     -807629.78     -9716.3228      0.36236891     0.057299198    28.784101      44.23112     
     98750   197.5          308.30006      133055.55     -807631.8      -9678.9538      0.36238762     0.057075879    28.806729      43.88003     
     98760   197.52         307.12728      132057.8      -807633.31     -9621.5579      0.36240618     0.056734515    28.768644      43.528947    
     98770   197.54         293.18506      133380.07     -807630.03     -9662.0903      0.36242459     0.056970623    28.779868      43.177862    
     98780   197.56         311.19589      133110.94     -807631.88     -9680.3382      0.36244287     0.057075341    28.89595       42.826761    
     98790   197.58         304.28917      134068.71     -807629.76     -9710.6783      0.362461       0.057251362    28.906714      42.47566     
     98800   197.6          304.91443      132746.02     -807631.54     -9653.2714      0.36247899     0.056910084    28.86457       42.124565    
     98810   197.62         307.96529      134639.55     -807630.19     -9704.0924      0.36249683     0.057206878    28.803524      41.773481    
     98820   197.64         313.63323      132717.54     -807630.96     -9700.4149      0.36251453     0.057182406    28.75319       41.422404    
     98830   197.66         306.30934      134485.51     -807630.2      -9685.1275      0.36253209     0.057089524    28.788293      41.071324    
     98840   197.68         303.8238       131934.77     -807631.91     -9615.6985      0.36254951     0.056677548    28.746915      40.720249    
     98850   197.7          308.53662      134853.19     -807630.1      -9686.4903      0.36256678     0.057092095    28.747152      40.369176    
     98860   197.72         306.71495      132833.69     -807629.82     -9684.5542      0.36258391     0.057077986    28.765598      40.0181      
     98870   197.74         308.97913      135467.03     -807628.99     -9711.4852      0.3626009      0.057234029    28.775004      39.667024    
     98880   197.76         302.2757       133413.64     -807630.05     -9646.8428      0.36261774     0.056850422    28.729853      39.315955    
     98890   197.78         318.36911      135359.32     -807629.69     -9721.4507      0.36263445     0.05728746     28.800413      38.964877    
     98900   197.8          311.74369      133025.06     -807629.54     -9695.5396      0.362651       0.057132159    28.72791       38.613809    
     98910   197.82         306.41399      135478.51     -807629        -9682.3598      0.36266742     0.057051914    28.689769      38.262747    
     98920   197.84         322.96182      132213.71     -807633.09     -9624.2346      0.36268369     0.056706875    28.749057      37.911678    
     98930   197.86         308.07752      135115.8      -807628.39     -9703.8413      0.36269982     0.057173382    28.79304       37.560604    
     98940   197.88         316.2081       133024.83     -807630.51     -9671.4883      0.36271581     0.056980252    28.796503      37.20953     
     98950   197.9          304.45936      135288.73     -807627.92     -9697.7914      0.36273165     0.057132723    28.80597       36.858455    
     98960   197.92         319.132        133349.98     -807630.85     -9669.5358      0.36274735     0.056963795    28.778468      36.507385    
     98970   197.94         318.33954      135483.21     -807629.19     -9716.383       0.36276291     0.05723732     28.79794       36.156313    
     98980   197.96         310.77143      133753.35     -807628.48     -9705.1531      0.36277832     0.057168738    28.776849      35.805244    
     98990   197.98         320.58742      134495.51     -807630.73     -9674.1704      0.36279359     0.056983834    28.811158      35.454172    
     99000   198            316.96178      132654.79     -807631.13     -9647.5708      0.36280872     0.056824785    28.758665      35.103107    
     99010   198.02         309.41831      134249.64     -807628.41     -303.14719      0.3628237      0.057135418    28.849849      34.752032    
     99020   198.04         313.58789      133292.11     -807629.92     -302.32696      0.36283855     0.056978496    28.825862      34.400961    
     99030   198.06         311.03618      134384.39     -807629.53     -302.33197      0.36285324     0.056977132    28.858554      34.049886    
     99040   198.08         311.98223      134051.15     -807629.41     -302.66747      0.3628678      0.057038072    28.856437      33.698813    
     99050   198.1          310.49624      134594.84     -807628.24     -303.66574      0.36288221     0.057223924    28.849024      33.347742    
     99060   198.12         316.68507      134319.8      -807629.78     -303.08241      0.36289648     0.057111754    28.894947      32.996666    
     99070   198.14         319.55175      133819.26     -807630.93     -302.37175      0.36291061     0.056975621    28.896464      32.645591    
     99080   198.16         311.81607      134312.02     -807629.6      -302.71189      0.36292459     0.057037516    28.89651       32.294517    
     99090   198.18         310.82912      133985.43     -807629.33     -302.95912      0.36293843     0.057081923    28.783826      31.943456    
     99100   198.2          309.02622      134733.88     -807628.4      -303.68798      0.36295213     0.057217092    28.820158      31.592393    
     99110   198.22         317.79         133441.19     -807631.34     -302.16665      0.36296568     0.056928336    28.874098      31.241324    
     99120   198.24         310.93438      135036.2      -807628.88     -303.73969      0.36297909     0.057222583    28.901631      30.890253    
     99130   198.26         300.38826      133717.75     -807628.42     -302.94018      0.36299236     0.057069875    29.009504      30.539172    
     99140   198.28         315.66407      134903.11     -807629.67     -303.87093      0.36300548     0.057243145    28.885446      30.188105    
     99150   198.3          309.52557      132761.45     -807631.29     -301.57774      0.36301846     0.056809122    28.90669       29.837037    
     99160   198.32         312.68017      134165.04     -807630.42     -302.98555      0.3630313      0.057072298    28.929094      29.485968    
     99170   198.34         310.96505      132625.01     -807630.79     -302.60591      0.36304399     0.056998795    28.941924      29.134899    
     99180   198.36         303.74411      135106.51     -807628.88     -303.60984      0.36305655     0.057185918    28.857978      28.783838    
     99190   198.38         309.43374      132791.89     -807631.34     -302.10399      0.36306895     0.056900341    28.77988       28.432787    
     99200   198.4          310.62309      133990.26     -807630.29     -303.48075      0.36308122     0.057157718    28.828044      28.081732    
     99210   198.42         309.9095       133367.18     -807629.84     -304.0452       0.36309334     0.057262115    26.960974      27.730868    
     99220   198.44         305.85128      134200.16     -807630.19     -303.35181      0.36310532     0.057129641    28.866606      27.379808    
     99230   198.46         302.57636      133081        -807631.62     -301.74362      0.36311715     0.056824922    28.836788      27.028752    
     99240   198.48         299.75187      133725.63     -807630.29     -302.99985      0.36312885     0.057059659    28.732949      26.677707    
     99250   198.5          298.33816      132809.31     -807629.69     -303.84895      0.3631404      0.05721774     28.822751      26.326653    
     99260   198.52         303.04281      134820.74     -807630.71     -303.9137       0.3631518      0.057228134    28.884152      25.975596    
     99270   198.54         296.11495      134084.54     -807631.05     -303.15496      0.36316306     0.057083491    28.894195      25.624538    
     99280   198.56         308.27135      134665.48     -807631.92     -304.3977       0.36317418     0.057315742    28.931549      25.273478    
     99290   198.58         298.36948      132837.41     -807631.34     -304.13945      0.36318516     0.057265384    28.909848      24.92242     
     99300   198.6          296.31817      134109.34     -807631.61     -303.84351      0.36319599     0.057207956    28.907729      24.571365    
     99310   198.62         294.75853      131659.03     -807634.11     -301.40693      0.36320668     0.056747525    28.891571      24.220311    
     99320   198.64         293.96018      133240.3      -807632.44     -303.14008      0.36321723     0.057072177    28.980979      23.869251    
     99330   198.66         280.8984       133455.25     -807630.13     -303.74642      0.36322763     0.057184695    29.000638      23.518191    
     99340   198.68         280.71853      134260.52     -807630.03     -303.76574      0.36323789     0.057186717    28.931432      23.167138    
     99350   198.7          300.11072      132793.04     -807633.94     -302.61963      0.36324801     0.056969364    28.866886      22.81609     
     99360   198.72         294.24621      134293.62     -807631.76     -303.91014      0.36325798     0.057210738    28.84477       22.465046    
     99370   198.74         298.86756      133115.88     -807631.17     -305.04797      0.36326781     0.057423379    28.878186      22.113999    
     99380   198.76         305.27999      133337.95     -807633.27     -303.68205      0.3632775      0.057164729    28.832177      21.762957    
     99390   198.78         290.68619      133920.4      -807632.44     -302.41154      0.36328704     0.056924073    28.76628       21.411921    
     99400   198.8          292.23148      132837.32     -807631.27     -303.66557      0.36329644     0.057158645    28.822397      21.060881    
     99410   198.82         290.27991      132996.18     -807630.95     -303.50354      0.3633057      0.057126691    28.914232      20.709836    
     99420   198.84         299.54175      133613.54     -807632.19     -303.3463       0.36331481     0.057095663    28.932941      20.35879     
     99430   198.86         291.79323      133738.29     -807631.3      -302.96301      0.36332378     0.057022111    28.871472      20.00775     
     99440   198.88         301.07402      135121.87     -807630.93     -304.33844      0.36333261     0.057279597    28.910169      19.656708    
     99450   198.9          300.52382      134245.42     -807630.34     -304.61233      0.36334129     0.057329775    28.897117      19.305668    
     99460   198.92         305.96771      134360.15     -807631.96     -303.45866      0.36334983     0.057111306    28.94932       18.954626    
     99470   198.94         312.15442      132618.18     -807634.3      -301.72101      0.36335823     0.056782964    28.856501      18.60359     
     99480   198.96         298.57251      133119.34     -807630.84     -303.0872       0.36336648     0.057038783    28.846641      18.252556    
     99490   198.98         295.66892      133638.17     -807629.29     -304.04569      0.3633746      0.057217886    28.874127      17.901522    
     99500   199            304.89619      133380.28     -807631.45     -302.90787      0.36338256     0.057002511    28.903177      17.550486    
     99510   199.02         310.9615       134227.2      -807631.97     -9695.5908      0.36339039     0.057016215    28.781025      17.199459    
     99520   199.04         306.63349      133941.8      -807629.74     -9743.2663      0.36339807     0.057295366    28.76539       16.848433    
     99530   199.06         306.50558      134672.13     -807628.67     -9770.1947      0.3634056      0.057452527    28.822914      16.497405    
     99540   199.08         299.10172      133692.09     -807630.37     -9677.9832      0.363413       0.05690913     28.793191      16.146379    
     99550   199.1          302.43544      134002.13     -807630.91     -9667.854       0.36342025     0.056848433    28.778416      15.795355    
     99560   199.12         318.4407       131949.5      -807632.13     -9696.8617      0.36342736     0.057017888    28.777664      15.444332    
     99570   199.14         308.78711      134890.51     -807628.65     -9758.7319      0.36343432     0.057380587    28.799649      15.093308    
     99580   199.16         308.16687      133694.68     -807631.61     -9656.9741      0.36344114     0.056781194    28.807952      14.742284    
     99590   199.18         307.78831      134841.77     -807630.13     -9696.7549      0.36344782     0.05701405     28.786655      14.391263    
     99600   199.2          322.95349      133418.76     -807630.85     -9739.9026      0.36345435     0.057266716    28.798641      14.040241    
     99610   199.22         299.06382      136537.32     -807625.58     -9795.6708      0.36346074     0.057593598    28.788681      13.689221    
     99620   199.24         312.70424      133099.05     -807631.33     -9670.3555      0.36346699     0.05685583     28.841917      13.338199    
     99630   199.26         303.17469      134775.71     -807629.43     -9681.7834      0.3634731      0.056922063    28.765783      12.987181    
     99640   199.28         314.54368      132868.27     -807629.76     -9720.9745      0.36347906     0.057151542    28.752555      12.636165    
     99650   199.3          313.97332      134995.59     -807628.09     -9767.2488      0.36348487     0.057422679    28.755737      12.285149    
     99660   199.32         315.54341      133268.01     -807631.68     -9658.0164      0.36349055     0.056779604    28.73649       11.934134    
     99670   199.34         314.82956      135096.69     -807630.58     -9684.868       0.36349608     0.056936598    28.754437      11.583119    
     99680   199.36         313.3974       134151.01     -807628.92     -9733.934       0.36350147     0.057224205    28.778781      11.232105    
     99690   199.38         309.61668      136267.93     -807626.94     -9775.3156      0.36350671     0.057466652    28.762576      10.881091    
     99700   199.4          314.6417       133123.62     -807631.21     -9661.4382      0.36351181     0.056796398    28.797581      10.530077    
     99710   199.42         321.05076      134173.95     -807631.05     -9690.8109      0.36351677     0.056968294    28.751527      10.179065    
     99720   199.44         309.20142      133633.57     -807627.93     -9741.1591      0.36352158     0.057263512    28.790528      9.8280523    
     99730   199.46         320.4982       134062.19     -807630.04     -9720.5892      0.36352625     0.057141857    28.798374      9.4770402    
     99740   199.48         308.09337      133759.61     -807630.01     -9664.3808      0.36353078     0.056810732    28.809459      9.1260286    
     99750   199.5          319.52906      133878.94     -807630.74     -9693.1293      0.36353516     0.056979039    28.846188      8.7750166    
     99760   199.52         314.46584      135717.34     -807626.79     -9796.5055      0.3635394      0.057586043    28.824939      8.4240062    
     99770   199.54         317.20934      134068.69     -807628.72     -9750.3937      0.3635435      0.057314342    28.764373      8.0729982    
     99780   199.56         316.94791      135194.57     -807631.17     -9669.4669      0.36354745     0.056838023    28.75643       7.7219911    
     99790   199.58         314.14593      132639.55     -807631.25     -9657.9902      0.36355126     0.056769967    28.691798      7.3709863    
     99800   199.6          318.56647      134736.1      -807628.53     -9766.575       0.36355493     0.057407653    28.786522      7.0199797    
     99810   199.62         312.68779      132072.28     -807630.39     -9687.759       0.36355845     0.056943823    28.889088      6.6689715    
     99820   199.64         319.41093      134524.64     -807631.72     -9673.4379      0.36356183     0.056859116    28.842672      6.3179653    
     99830   199.66         299.39826      133324.73     -807628.98     -9682.1146      0.36356507     0.056909609    28.79146       5.9669609    
     99840   199.68         303.12427      137407.66     -807625.3      -9820.1308      0.36356816     0.057720351    28.798936      5.6159572    
     99850   199.7          318.74406      133570.07     -807631.06     -9713.7248      0.36357111     0.05709446     28.783114      5.2649545    
     99860   199.72         312.07234      135558.5      -807630.81     -9695.2147      0.36357392     0.056985222    28.758307      4.913953     
     99870   199.74         310.20812      132051.89     -807631.26     -9688.0451      0.36357658     0.056942665    28.792259      4.5629515    
     99880   199.76         300.10925      136146.41     -807626.24     -9807.9237      0.3635791      0.057646866    28.752861      4.2119514    
     99890   199.78         312.85904      131754.18     -807633.59     -9641.0148      0.36358148     0.056665475    28.846443      3.8609507    
     99900   199.8          295.15309      135074.61     -807630.23     -9674.2996      0.36358371     0.056860759    28.836294      3.509951     
     99910   199.82         305.48464      132263.8      -807631.42     -9696.869       0.3635858      0.056993083    28.89279       3.1589515    
     99920   199.84         306.50057      136188.11     -807627.87     -9819.1871      0.36358775     0.057711695    28.812566      2.8079537    
     99930   199.86         302.93251      132914.46     -807631.63     -9693.4806      0.36358955     0.05697258     28.875944      2.4569562    
     99940   199.88         308.17045      135361.85     -807631.97     -9707.9613      0.36359121     0.057057429    28.735013      2.1059607    
     99950   199.9          307.16856      133136.18     -807631.5      -9727.9315      0.36359273     0.057174564    28.677593      1.7549661    
     99960   199.92         299.50696      134869.18     -807628.38     -9797.0733      0.3635941      0.057580717    28.76034       1.4039716    
     99970   199.94         303.6914       132398.51     -807632.79     -9678.8515      0.36359533     0.056885696    28.841568      1.0529774    
     99980   199.96         292.67182      133074.37     -807632.54     -9638.6978      0.36359641     0.05664953     28.792213      0.70198419   
     99990   199.98         303.09388      133299.59     -807632.29     -9695.2493      0.36359736     0.056981753    28.844688      0.35099166   
    100000   200            302.15383      132983.91     -807630.32     -9754.7347      0.36359816     0.057331239    28.848094      0            
Loop time of 3509.91 on 32 procs for 100000 steps with 1080 atoms

Performance: 4.923 ns/day, 4.875 hours/ns, 28.491 timesteps/s, 30.770 katom-step/s
62.7% CPU use with 32 MPI tasks x 1 OpenMP threads

MPI task timing breakdown:
Section |  min time  |  avg time  |  max time  |%varavg| %total
---------------------------------------------------------------
Pair    | 2393.7     | 2799.5     | 3035.8     | 303.2 | 79.76
Neigh   | 0.00081903 | 0.00089753 | 0.0010737  |   0.0 |  0.00
Comm    | 401.29     | 637.55     | 1043.4     | 635.3 | 18.16
Output  | 2.3472     | 2.3548     | 2.364      |   0.2 |  0.07
Modify  | 64.229     | 64.46      | 64.665     |   1.2 |  1.84
Other   |            | 6.014      |            |       |  0.17

Nlocal:          33.75 ave          41 max          26 min
Histogram: 2 3 5 1 0 5 7 3 5 1
Nghost:        1022.78 ave        1039 max        1007 min
Histogram: 2 3 3 6 3 3 4 3 1 4
Neighs:              0 ave           0 max           0 min
Histogram: 32 0 0 0 0 0 0 0 0 0
FullNghs:      5354.25 ave        6549 max        4116 min
Histogram: 2 4 5 0 0 7 6 4 3 1

Total # of neighbors = 171336
Ave neighs/atom = 158.64444
Neighbor list builds = 2
Dangerous builds = 0

Total wall time: 1:01:53
