
     Program PWSCF v.7.1 starts on  1Feb2024 at 19:23:23 

     This program is part of the open-source Quantum ESPRESSO suite
     for quantum simulation of materials; please cite
         "P. Giannozzi et al., J. Phys.:Condens. Matter 21 395502 (2009);
         "P. Giannozzi et al., J. Phys.:Condens. Matter 29 465901 (2017);
         "P. Giannozzi et al., J. Chem. Phys. 152 154105 (2020);
          URL http://www.quantum-espresso.org", 
     in publications or presentations arising from this work. More details at
     http://www.quantum-espresso.org/quote

     Parallel version (MPI), running on   112 processors

     MPI processes distributed on     1 nodes
     996659 MiB available memory on the printing compute node when the environment starts

     Reading input from /n/holyscratch01/kozinsky_lab/sfalletta/QE/SiO2/SiO2-T300-E0-0/SiO2-scf.inp

     Current dimensions of program PWSCF are:
     Max number of different atomic species (ntypx) = 10
     Max number of k-points (npk) =  40000
     Max angular momentum in pseudopotentials (lmaxx) =  4

     IMPORTANT: XC functional enforced from input :
     Exchange-correlation= PBE
                           (   1   4   3   4   0   0   0)
     Any further DFT definition will be discarded
     Please, verify this is what you really want


     R & G space division:  proc/nbgrp/npool/nimage =     112
     Subspace diagonalization in iterative solution of the eigenvalue problem:
     one sub-group per band group will be used
     scalapack distributed-memory algorithm (size of sub-group: 10* 10 procs)


     Parallelization info
     --------------------
     sticks:   dense  smooth     PW     G-vecs:    dense   smooth      PW
     Min         174      87     23                21712     7675    1045
     Max         175      88     24                21721     7680    1049
     Sum       19575    9769   2585              2432309   859779  117343

     Using Slab Decomposition



     bravais-lattice index     =           14
     lattice parameter (alat)  =      18.8417  a.u.
     unit-cell volume          =    6365.9664 (a.u.)^3
     number of atoms/cell      =           72
     number of atomic types    =            2
     number of electrons       =       384.00
     number of Kohn-Sham states=          220
     kinetic-energy cutoff     =     100.0000  Ry
     charge density cutoff     =     800.0000  Ry
     scf convergence threshold =      1.0E-08
     mixing beta               =       0.7000
     number of iterations used =            8  plain     mixing
     Exchange-correlation= PBE
                           (   1   4   3   4   0   0   0)

     Using Berry phase electric field
     In a.u.(Ry)  cartesian system of reference
        0.0000000000
        0.0000000000
        0.0000000000
     In a.u.(Ry)  crystal system of reference
        0.0000000000
        0.0000000000
        0.0000000000
     Number of iterative cycles:   1


     celldm(1)=  18.841714  celldm(2)=   0.866025  celldm(3)=   1.098936
     celldm(4)=   0.000000  celldm(5)=   0.000000  celldm(6)=   0.000000

     crystal axes: (cart. coord. in units of alat)
               a(1) = (   1.000000   0.000000   0.000000 )  
               a(2) = (   0.000000   0.866025   0.000000 )  
               a(3) = (   0.000000   0.000000   1.098936 )  

     reciprocal axes: (cart. coord. in units 2 pi/alat)
               b(1) = (  1.000000  0.000000  0.000000 )  
               b(2) = (  0.000000  1.154701  0.000000 )  
               b(3) = (  0.000000  0.000000  0.909971 )  


     PseudoPot. # 1 for Si read from file:
     /n/holyscratch01/kozinsky_lab/sfalletta/QE/Inputs/Si.upf
     MD5 check sum: 1e49d63d1c5892e9c2567cdfc797a7ef
     Pseudo is Norm-conserving + core correction, Zval =  4.0
     Generated using ONCVPSP code by D. R. Hamann
     Using radial grid of 1510 points,  6 beta functions with: 
                l(1) =   0
                l(2) =   0
                l(3) =   1
                l(4) =   1
                l(5) =   2
                l(6) =   2

     PseudoPot. # 2 for O  read from file:
     /n/holyscratch01/kozinsky_lab/sfalletta/QE/Inputs/O.upf
     MD5 check sum: e161f86cb4953fdc9aae83e76c3f29b8
     Pseudo is Norm-conserving + core correction, Zval =  6.0
     Generated using ONCVPSP code by D. R. Hamann
     Using radial grid of  936 points,  5 beta functions with: 
                l(1) =   0
                l(2) =   0
                l(3) =   1
                l(4) =   1
                l(5) =   2

     atomic species   valence    mass     pseudopotential
        Si             4.00    28.08550     Si( 1.00)
        O              6.00    15.99900     O ( 1.00)

     No symmetry found



   Cartesian axes

     site n.     atom                  positions (alat units)
         1           Si  tau(   1) = (   0.8813035   0.2172857   0.4659607  )
         2           Si  tau(   2) = (   0.1343238   0.2333319   0.2914988  )
         3           Si  tau(   3) = (   0.2383927   0.8564063   0.1010430  )
         4           O   tau(   4) = (   0.9214375   0.3207027   0.0064787  )
         5           O   tau(   5) = (   0.1079934   0.3627493   0.2060788  )
         6           O   tau(   6) = (   0.0227171   0.1991313   0.4044137  )
         7           O   tau(   7) = (   0.1229554   0.0989275   0.1822627  )
         8           O   tau(   8) = (   0.2818896   0.2416242   0.3523658  )
         9           O   tau(   9) = (   0.3337240   0.0563689   0.5145374  )
        10           Si  tau(  10) = (   0.8922758   0.1913595   1.0153044  )
        11           Si  tau(  11) = (   0.1336428   0.2131676   0.8251846  )
        12           Si  tau(  12) = (   0.2355664   0.0005642   0.6377606  )
        13           O   tau(  13) = (   0.8749819   0.3387718   0.5661873  )
        14           O   tau(  14) = (   0.0756980   0.3505253   0.7685320  )
        15           O   tau(  15) = (   0.0396649   0.1533708   0.9327688  )
        16           O   tau(  16) = (   0.1401811   0.1215162   0.7044517  )
        17           O   tau(  17) = (   0.2767304   0.2412150   0.8880132  )
        18           O   tau(  18) = (   0.3330279   0.0777264   0.0060730  )
        19           Si  tau(  19) = (   0.8785514   0.6495924   0.2801615  )
        20           Si  tau(  20) = (   0.0142748   0.4209203   0.0814573  )
        21           O   tau(  21) = (   0.8288985   0.7898607   0.2103483  )
        22           O   tau(  22) = (   0.9248525   0.5370326   0.1716546  )
        23           O   tau(  23) = (   0.0019080   0.6754605   0.3723134  )
        24           O   tau(  24) = (   0.0908774   0.5120030   0.5511350  )
        25           Si  tau(  25) = (   0.8834879   0.6569250   0.8315944  )
        26           Si  tau(  26) = (   0.9689181   0.4231548   0.6600762  )
        27           O   tau(  27) = (   0.8406771   0.7849172   0.7408457  )
        28           O   tau(  28) = (   0.8828611   0.5282237   0.7349012  )
        29           O   tau(  29) = (   0.0284158   0.6778976   0.9082347  )
        30           O   tau(  30) = (   0.1008464   0.5006897   1.0854004  )
        31           Si  tau(  31) = (   0.3903945   0.1959841   0.4544257  )
        32           Si  tau(  32) = (   0.6350888   0.2374650   0.2641304  )
        33           Si  tau(  33) = (   0.7426821   0.8580562   0.0964391  )
        34           O   tau(  34) = (   0.3964664   0.3277193   0.0047873  )
        35           O   tau(  35) = (   0.5993086   0.3639969   0.1831634  )
        36           O   tau(  36) = (   0.5337991   0.1747186   0.3725310  )
        37           O   tau(  37) = (   0.6430562   0.1192044   0.1607756  )
        38           O   tau(  38) = (   0.7887605   0.2740375   0.3430855  )
        39           O   tau(  39) = (   0.8278043   0.0860395   0.5278145  )
        40           Si  tau(  40) = (   0.3766000   0.2038943   1.0073310  )
        41           Si  tau(  41) = (   0.6320258   0.2494081   0.8224716  )
        42           Si  tau(  42) = (   0.7352372   0.0055785   0.6452256  )
        43           O   tau(  43) = (   0.4035823   0.3025383   0.5736873  )
        44           O   tau(  44) = (   0.5722260   0.3934746   0.7657649  )
        45           O   tau(  45) = (   0.5240344   0.1808887   0.9320637  )
        46           O   tau(  46) = (   0.6461664   0.1319529   0.7094343  )
        47           O   tau(  47) = (   0.7831219   0.2395221   0.8890653  )
        48           O   tau(  48) = (   0.8376001   0.0555046   1.0794229  )
        49           Si  tau(  49) = (   0.1293853   0.6365260   0.4717336  )
        50           Si  tau(  50) = (   0.3723164   0.6453710   0.2711039  )
        51           Si  tau(  51) = (   0.4873104   0.4334752   0.0847911  )
        52           O   tau(  52) = (   0.1490692   0.7537867   0.0162825  )
        53           O   tau(  53) = (   0.3286530   0.7825382   0.2046074  )
        54           O   tau(  54) = (   0.2587255   0.6093160   0.3838533  )
        55           O   tau(  55) = (   0.3958215   0.5194198   0.1762461  )
        56           O   tau(  56) = (   0.5090152   0.6942657   0.3312086  )
        57           O   tau(  57) = (   0.5597162   0.5079511   0.4994732  )
        58           Si  tau(  58) = (   0.1410025   0.6363916   1.0049239  )
        59           Si  tau(  59) = (   0.3787302   0.6676836   0.8184427  )
        60           Si  tau(  60) = (   0.4745499   0.4452287   0.6270602  )
        61           O   tau(  61) = (   0.1421809   0.7626708   0.5703254  )
        62           O   tau(  62) = (   0.3286902   0.8031147   0.7565298  )
        63           O   tau(  63) = (   0.2749111   0.6119889   0.9202941  )
        64           O   tau(  64) = (   0.3804002   0.5668101   0.6818974  )
        65           O   tau(  65) = (   0.5207367   0.6862050   0.8906139  )
        66           O   tau(  66) = (   0.5723724   0.5167219   1.0749096  )
        67           Si  tau(  67) = (   0.6146768   0.6408628   0.4341361  )
        68           O   tau(  68) = (   0.6369814   0.7597964   0.0283921  )
        69           O   tau(  69) = (   0.7680506   0.6118465   0.3794012  )
        70           Si  tau(  70) = (   0.6210997   0.6519002   1.0005310  )
        71           O   tau(  71) = (   0.6322835   0.7869101   0.5598266  )
        72           O   tau(  72) = (   0.7704657   0.6311612   0.9433399  )

     number of k points=     8
                       cart. coord. in units 2pi/alat
        k(    1) = (   0.0000000   0.0000000   0.0000000), wk =   0.2500000
        k(    2) = (   0.0000000   0.0000000   0.4549855), wk =   0.2500000
        k(    3) = (   0.0000000   0.5773503   0.0000000), wk =   0.2500000
        k(    4) = (   0.0000000   0.5773503   0.4549855), wk =   0.2500000
        k(    5) = (   0.5000000   0.0000000   0.0000000), wk =   0.2500000
        k(    6) = (   0.5000000   0.0000000   0.4549855), wk =   0.2500000
        k(    7) = (   0.5000000   0.5773503   0.0000000), wk =   0.2500000
        k(    8) = (   0.5000000   0.5773503   0.4549855), wk =   0.2500000

     Dense  grid:  2432309 G-vectors     FFT dimensions: ( 180, 150, 192)

     Smooth grid:   859779 G-vectors     FFT dimensions: ( 120, 108, 135)

     Estimated max dynamical RAM per process >      78.77 MB

     Estimated total dynamical RAM >       8.62 GB

     Initial potential from superposition of free atoms

     starting charge     383.9851, renormalised to     384.0000
     Starting wfcs are  288 randomized atomic wfcs

     total cpu time spent up to now is        7.1 secs

     Self-consistent Calculation

     iteration #  1     ecut=   100.00 Ry     beta= 0.70
     Davidson diagonalization with overlap
     ethr =  1.00E-02,  avg # of iterations =  3.0

     Expectation value of exp(iGx):  (6.78979412122455717E-002,-3.46641024405928977E-002)   1.0000000000000000     
     Electronic Dipole per cell (Ry a.u.)  -4.0037091767685267     
     Ionic Dipole per cell (Ry a.u.)   4797.7395854892329     

     Expectation value of exp(iGx):  (1.51070687086906109E-002,-2.88712203983947958E-002)  0.86602540378443849     
     Electronic Dipole per cell (Ry a.u.)  -7.9970727632324126     
     Ionic Dipole per cell (Ry a.u.)   4434.4358181568914     

     Expectation value of exp(iGx):        (0.11775144108837661,1.32001168472099806E-002)   1.0989361747729789     
     Electronic Dipole per cell (Ry a.u.)   1.0405433090466778     
     Ionic Dipole per cell (Ry a.u.)   5445.5764487352608     
Electronic Dipole on Cartesian axes
           1  -4.0037091767685267     
           2  -7.9970727632324126     
           3   1.0405433090466778     
Ionic Dipole on Cartesian axes
           1   4797.7395854892329     
           2   4434.4358181568914     
           3   5445.5764487352608     

     total cpu time spent up to now is      515.5 secs

     total energy              =   -1789.29461727 Ry
     estimated scf accuracy    <      19.24569387 Ry

     iteration #  2     ecut=   100.00 Ry     beta= 0.70
     Davidson diagonalization with overlap
     ethr =  5.01E-03,  avg # of iterations =  7.5

     Expectation value of exp(iGx):  (2.15468583872375496E-002,-1.24446788499561652E-002)   1.0000000000000000     
     Electronic Dipole per cell (Ry a.u.)  -4.4423909243903301     
     Ionic Dipole per cell (Ry a.u.)   4797.7395854892329     

     Expectation value of exp(iGx):  (3.85777774039282274E-003,-6.31599622214146228E-003)  0.86602540378443849     
     Electronic Dipole per cell (Ry a.u.)  -7.5105168432741030     
     Ionic Dipole per cell (Ry a.u.)   4434.4358181568914     

     Expectation value of exp(iGx):   (4.66757954497704908E-002,1.48760598532373615E-003)   1.0989361747729789     
     Electronic Dipole per cell (Ry a.u.)  0.29696633286890917     
     Ionic Dipole per cell (Ry a.u.)   5445.5764487352608     
Electronic Dipole on Cartesian axes
           1  -4.4423909243903301     
           2  -7.5105168432741030     
           3  0.29696633286890917     
Ionic Dipole on Cartesian axes
           1   4797.7395854892329     
           2   4434.4358181568914     
           3   5445.5764487352608     

     total cpu time spent up to now is     1004.1 secs

     total energy              =   -1795.31844824 Ry
     estimated scf accuracy    <      10.99699461 Ry

     iteration #  3     ecut=   100.00 Ry     beta= 0.70
     Davidson diagonalization with overlap
     ethr =  2.86E-03,  avg # of iterations =  2.9

     Expectation value of exp(iGx):  (3.60017391868745901E-002,-1.93827161534247810E-002)   1.0000000000000000     
     Electronic Dipole per cell (Ry a.u.)  -4.1889699707409056     
     Ionic Dipole per cell (Ry a.u.)   4797.7395854892329     

     Expectation value of exp(iGx):  (6.77461474611578893E-003,-1.25757690740364494E-002)  0.86602540378443849     
     Electronic Dipole per cell (Ry a.u.)  -7.9085640661765266     
     Ionic Dipole per cell (Ry a.u.)   4434.4358181568914     

     Expectation value of exp(iGx):   (7.06517555723110008E-002,4.58427058322585443E-003)   1.0989361747729789     
     Electronic Dipole per cell (Ry a.u.)  0.60394435523880508     
     Ionic Dipole per cell (Ry a.u.)   5445.5764487352608     
Electronic Dipole on Cartesian axes
           1  -4.1889699707409056     
           2  -7.9085640661765275     
           3  0.60394435523880508     
Ionic Dipole on Cartesian axes
           1   4797.7395854892329     
           2   4434.4358181568914     
           3   5445.5764487352608     

     total cpu time spent up to now is     1489.3 secs

     total energy              =   -1797.11219938 Ry
     estimated scf accuracy    <       0.15405382 Ry

     iteration #  4     ecut=   100.00 Ry     beta= 0.70
     Davidson diagonalization with overlap
     ethr =  4.01E-05,  avg # of iterations = 15.8

     Expectation value of exp(iGx):  (3.87417348866315528E-002,-2.14462547660926282E-002)   1.0000000000000000     
     Electronic Dipole per cell (Ry a.u.)  -4.2882023040978448     
     Ionic Dipole per cell (Ry a.u.)   4797.7395854892329     

     Expectation value of exp(iGx):  (7.88200674521626760E-003,-1.37478096916060725E-002)  0.86602540378443849     
     Electronic Dipole per cell (Ry a.u.)  -7.7142941541026833     
     Ionic Dipole per cell (Ry a.u.)   4434.4358181568914     

     Expectation value of exp(iGx):   (7.53303164778507672E-002,5.61809406428573094E-003)   1.0989361747729789     
     Electronic Dipole per cell (Ry a.u.)  0.69386337101145124     
     Ionic Dipole per cell (Ry a.u.)   5445.5764487352608     
Electronic Dipole on Cartesian axes
           1  -4.2882023040978448     
           2  -7.7142941541026842     
           3  0.69386337101145124     
Ionic Dipole on Cartesian axes
           1   4797.7395854892329     
           2   4434.4358181568914     
           3   5445.5764487352608     

     total cpu time spent up to now is     1982.8 secs

     total energy              =   -1797.19046669 Ry
     estimated scf accuracy    <       0.11294165 Ry

     iteration #  5     ecut=   100.00 Ry     beta= 0.70
     Davidson diagonalization with overlap
     ethr =  2.94E-05,  avg # of iterations = 10.5

     Expectation value of exp(iGx):  (3.89944725866429240E-002,-2.06912250952000776E-002)   1.0000000000000000     
     Electronic Dipole per cell (Ry a.u.)  -4.1377549985293172     
     Ionic Dipole per cell (Ry a.u.)   4797.7395854892329     

     Expectation value of exp(iGx):  (7.61202724198448838E-003,-1.38389902527614010E-002)  0.86602540378443849     
     Electronic Dipole per cell (Ry a.u.)  -7.8443184185168739     
     Ionic Dipole per cell (Ry a.u.)   4434.4358181568914     

     Expectation value of exp(iGx):   (7.52102068223526321E-002,5.42758192410633736E-003)   1.0989361747729789     
     Electronic Dipole per cell (Ry a.u.)  0.67148357608998177     
     Ionic Dipole per cell (Ry a.u.)   5445.5764487352608     
Electronic Dipole on Cartesian axes
           1  -4.1377549985293172     
           2  -7.8443184185168739     
           3  0.67148357608998177     
Ionic Dipole on Cartesian axes
           1   4797.7395854892329     
           2   4434.4358181568914     
           3   5445.5764487352608     

     total cpu time spent up to now is     2482.9 secs

     total energy              =   -1797.19687742 Ry
     estimated scf accuracy    <       0.02775606 Ry

     iteration #  6     ecut=   100.00 Ry     beta= 0.70
     Davidson diagonalization with overlap
     c_bands:  1 eigenvalues not converged
     ethr =  7.23E-06,  avg # of iterations = 12.6

     Expectation value of exp(iGx):  (3.84885809608512611E-002,-2.05825857216896044E-002)   1.0000000000000000     
     Electronic Dipole per cell (Ry a.u.)  -4.1651856232755167     
     Ionic Dipole per cell (Ry a.u.)   4797.7395854892329     

     Expectation value of exp(iGx):  (7.56728454927526727E-003,-1.35907117380446585E-002)  0.86602540378443849     
     Electronic Dipole per cell (Ry a.u.)  -7.8063273602347065     
     Ionic Dipole per cell (Ry a.u.)   4434.4358181568914     

     Expectation value of exp(iGx):   (7.44968852231466527E-002,5.38526991255044996E-003)   1.0989361747729789     
     Electronic Dipole per cell (Ry a.u.)  0.67262435617774097     
     Ionic Dipole per cell (Ry a.u.)   5445.5764487352608     
Electronic Dipole on Cartesian axes
           1  -4.1651856232755167     
           2  -7.8063273602347065     
           3  0.67262435617774097     
Ionic Dipole on Cartesian axes
           1   4797.7395854892329     
           2   4434.4358181568914     
           3   5445.5764487352608     

     total cpu time spent up to now is     2968.2 secs

     total energy              =   -1797.19666468 Ry
     estimated scf accuracy    <       0.00615258 Ry

     iteration #  7     ecut=   100.00 Ry     beta= 0.70
     Davidson diagonalization with overlap
     ethr =  1.60E-06,  avg # of iterations =  8.1

     Expectation value of exp(iGx):  (3.81272016815775855E-002,-2.04532232229746661E-002)   1.0000000000000000     
     Electronic Dipole per cell (Ry a.u.)  -4.1762306061427710     
     Ionic Dipole per cell (Ry a.u.)   4797.7395854892329     

     Expectation value of exp(iGx):  (7.46735039108341759E-003,-1.34429954179909172E-002)  0.86602540378443849     
     Electronic Dipole per cell (Ry a.u.)  -7.8137083126848195     
     Ionic Dipole per cell (Ry a.u.)   4434.4358181568914     

     Expectation value of exp(iGx):   (7.39691421405362926E-002,5.24117994362144606E-003)   1.0989361747729789     
     Electronic Dipole per cell (Ry a.u.)  0.65934279579005772     
     Ionic Dipole per cell (Ry a.u.)   5445.5764487352608     
Electronic Dipole on Cartesian axes
           1  -4.1762306061427710     
           2  -7.8137083126848195     
           3  0.65934279579005772     
Ionic Dipole on Cartesian axes
           1   4797.7395854892329     
           2   4434.4358181568914     
           3   5445.5764487352608     

     total cpu time spent up to now is     3454.4 secs

     total energy              =   -1797.19754499 Ry
     estimated scf accuracy    <       0.00035835 Ry

     iteration #  8     ecut=   100.00 Ry     beta= 0.70
     Davidson diagonalization with overlap
     c_bands:  1 eigenvalues not converged
     ethr =  9.33E-08,  avg # of iterations = 15.1

     Expectation value of exp(iGx):  (3.80026229454665521E-002,-2.04204937730769025E-002)   1.0000000000000000     
     Electronic Dipole per cell (Ry a.u.)  -4.1821384560531882     
     Ionic Dipole per cell (Ry a.u.)   4797.7395854892329     

     Expectation value of exp(iGx):  (7.44948680544087367E-003,-1.33847211209830192E-002)  0.86602540378443849     
     Electronic Dipole per cell (Ry a.u.)  -7.8076271886078521     
     Ionic Dipole per cell (Ry a.u.)   4434.4358181568914     

     Expectation value of exp(iGx):   (7.37886939423129523E-002,5.24613667732558991E-003)   1.0989361747729789     
     Electronic Dipole per cell (Ry a.u.)  0.66157279002509606     
     Ionic Dipole per cell (Ry a.u.)   5445.5764487352608     
Electronic Dipole on Cartesian axes
           1  -4.1821384560531882     
           2  -7.8076271886078512     
           3  0.66157279002509606     
Ionic Dipole on Cartesian axes
           1   4797.7395854892329     
           2   4434.4358181568914     
           3   5445.5764487352608     

     total cpu time spent up to now is     3964.4 secs

     total energy              =   -1797.19767224 Ry
     estimated scf accuracy    <       0.00002019 Ry

     iteration #  9     ecut=   100.00 Ry     beta= 0.70
     Davidson diagonalization with overlap
     c_bands:  1 eigenvalues not converged
     c_bands:  1 eigenvalues not converged
     ethr =  5.26E-09,  avg # of iterations = 15.0

     Expectation value of exp(iGx):  (3.80064921391442198E-002,-2.04283142365052038E-002)   1.0000000000000000     
     Electronic Dipole per cell (Ry a.u.)  -4.1831326046432142     
     Ionic Dipole per cell (Ry a.u.)   4797.7395854892329     

     Expectation value of exp(iGx):  (7.44679311467757316E-003,-1.33901747824181627E-002)  0.86602540378443849     
     Electronic Dipole per cell (Ry a.u.)  -7.8100270994561853     
     Ionic Dipole per cell (Ry a.u.)   4434.4358181568914     

     Expectation value of exp(iGx):   (7.38005420669738815E-002,5.23140867581295237E-003)   1.0989361747729789     
     Electronic Dipole per cell (Ry a.u.)  0.65961613618980730     
     Ionic Dipole per cell (Ry a.u.)   5445.5764487352608     
Electronic Dipole on Cartesian axes
           1  -4.1831326046432142     
           2  -7.8100270994561853     
           3  0.65961613618980730     
Ionic Dipole on Cartesian axes
           1   4797.7395854892329     
           2   4434.4358181568914     
           3   5445.5764487352608     

     total cpu time spent up to now is     4452.4 secs

     total energy              =   -1797.19767510 Ry
     estimated scf accuracy    <       0.00000499 Ry

     iteration # 10     ecut=   100.00 Ry     beta= 0.70
     Davidson diagonalization with overlap
     ethr =  1.30E-09,  avg # of iterations = 14.4

     Expectation value of exp(iGx):  (3.80160461420786244E-002,-2.04271334163577539E-002)   1.0000000000000000     
     Electronic Dipole per cell (Ry a.u.)  -4.1820392154808790     
     Ionic Dipole per cell (Ry a.u.)   4797.7395854892329     

     Expectation value of exp(iGx):  (7.44875462889007037E-003,-1.33932350434701301E-002)  0.86602540378443849     
     Electronic Dipole per cell (Ry a.u.)  -7.8099183641366015     
     Ionic Dipole per cell (Ry a.u.)   4434.4358181568914     

     Expectation value of exp(iGx):   (7.38112018422993621E-002,5.23737330695295267E-003)   1.0989361747729789     
     Electronic Dipole per cell (Ry a.u.)  0.66027063904150529     
     Ionic Dipole per cell (Ry a.u.)   5445.5764487352608     
Electronic Dipole on Cartesian axes
           1  -4.1820392154808790     
           2  -7.8099183641366015     
           3  0.66027063904150529     
Ionic Dipole on Cartesian axes
           1   4797.7395854892329     
           2   4434.4358181568914     
           3   5445.5764487352608     

     total cpu time spent up to now is     4933.4 secs

     total energy              =   -1797.19767542 Ry
     estimated scf accuracy    <       0.00000068 Ry

     iteration # 11     ecut=   100.00 Ry     beta= 0.70
     Davidson diagonalization with overlap
     ethr =  1.78E-10,  avg # of iterations = 10.8

     Expectation value of exp(iGx):  (3.80214872666062922E-002,-2.04299783985679960E-002)   1.0000000000000000     
     Electronic Dipole per cell (Ry a.u.)  -4.1820255936918018     
     Ionic Dipole per cell (Ry a.u.)   4797.7395854892329     

     Expectation value of exp(iGx):  (7.45012148743535302E-003,-1.33957795459949004E-002)  0.86602540378443849     
     Electronic Dipole per cell (Ry a.u.)  -7.8099385866303077     
     Ionic Dipole per cell (Ry a.u.)   4434.4358181568914     

     Expectation value of exp(iGx):   (7.38199284959145663E-002,5.23820767240204804E-003)   1.0989361747729789     
     Electronic Dipole per cell (Ry a.u.)  0.66029766944839530     
     Ionic Dipole per cell (Ry a.u.)   5445.5764487352608     
Electronic Dipole on Cartesian axes
           1  -4.1820255936918018     
           2  -7.8099385866303077     
           3  0.66029766944839530     
Ionic Dipole on Cartesian axes
           1   4797.7395854892329     
           2   4434.4358181568914     
           3   5445.5764487352608     

     total cpu time spent up to now is     5418.9 secs

     total energy              =   -1797.19767565 Ry
     estimated scf accuracy    <       0.00000007 Ry

     iteration # 12     ecut=   100.00 Ry     beta= 0.70
     Davidson diagonalization with overlap
     c_bands:  1 eigenvalues not converged
     c_bands:  1 eigenvalues not converged
     ethr =  1.91E-11,  avg # of iterations = 14.8

     Expectation value of exp(iGx):  (3.80217935074667335E-002,-2.04297020567333829E-002)   1.0000000000000000     
     Electronic Dipole per cell (Ry a.u.)  -4.1819492751832712     
     Ionic Dipole per cell (Ry a.u.)   4797.7395854892329     

     Expectation value of exp(iGx):  (7.45026416277818834E-003,-1.33957730196473598E-002)  0.86602540378443849     
     Electronic Dipole per cell (Ry a.u.)  -7.8098773143811240     
     Ionic Dipole per cell (Ry a.u.)   4434.4358181568914     

     Expectation value of exp(iGx):   (7.38200704539384717E-002,5.23860331672974106E-003)   1.0989361747729789     
     Electronic Dipole per cell (Ry a.u.)  0.66034610972093366     
     Ionic Dipole per cell (Ry a.u.)   5445.5764487352608     
Electronic Dipole on Cartesian axes
           1  -4.1819492751832712     
           2  -7.8098773143811240     
           3  0.66034610972093366     
Ionic Dipole on Cartesian axes
           1   4797.7395854892329     
           2   4434.4358181568914     
           3   5445.5764487352608     

     total cpu time spent up to now is     5926.8 secs

     total energy              =   -1797.19767565 Ry
     estimated scf accuracy    <       0.00000003 Ry

     iteration # 13     ecut=   100.00 Ry     beta= 0.70
     Davidson diagonalization with overlap
     c_bands:  1 eigenvalues not converged
     ethr =  6.70E-12,  avg # of iterations = 12.9

     Expectation value of exp(iGx):  (3.80210935477331077E-002,-2.04297684680223926E-002)   1.0000000000000000     
     Electronic Dipole per cell (Ry a.u.)  -4.1820258750353920     
     Ionic Dipole per cell (Ry a.u.)   4797.7395854892329     

     Expectation value of exp(iGx):  (7.45015996798451680E-003,-1.33955160179468520E-002)  0.86602540378443849     
     Electronic Dipole per cell (Ry a.u.)  -7.8098610896624825     
     Ionic Dipole per cell (Ry a.u.)   4434.4358181568914     

     Expectation value of exp(iGx):   (7.38192433264643066E-002,5.23836139784462397E-003)   1.0989361747729789     
     Electronic Dipole per cell (Ry a.u.)  0.66032309079732132     
     Ionic Dipole per cell (Ry a.u.)   5445.5764487352608     
Electronic Dipole on Cartesian axes
           1  -4.1820258750353920     
           2  -7.8098610896624816     
           3  0.66032309079732132     
Ionic Dipole on Cartesian axes
           1   4797.7395854892329     
           2   4434.4358181568914     
           3   5445.5764487352608     

     total cpu time spent up to now is     6412.7 secs

     End of self-consistent calculation

          k = 0.0000 0.0000 0.0000 (107453 PWs)   bands (ev):

   -17.5471 -17.3535 -17.1434 -16.9709 -16.9336 -16.9051 -16.8203 -16.6364
   -16.5549 -16.4649 -16.4587 -16.4062 -16.2976 -16.1851 -16.0462 -15.9938
   -15.9739 -15.8857 -15.8622 -15.8141 -15.7351 -15.6990 -15.6296 -15.5243
   -15.4321 -15.3781 -15.3641 -15.3168 -15.2641 -15.2383 -15.2076 -15.1442
   -15.0728 -15.0355 -14.9672 -14.9172 -14.8943 -14.8117 -14.7346 -14.6410
   -14.3945 -14.3751 -14.3357 -14.3066 -14.0565 -14.0352 -13.7846 -13.6674
    -7.4479  -6.8124  -6.5828  -6.4375  -6.3785  -6.2874  -6.0446  -5.9772
    -5.8431  -5.3846  -5.3203  -5.2203  -5.1562  -5.0944  -4.8257  -4.6494
    -4.4315  -4.3848  -4.2407  -4.1269  -4.0500  -3.9854  -3.8534  -3.7487
    -3.6968  -3.6244  -3.5937  -3.4720  -3.3797  -3.2626  -3.2311  -3.1847
    -3.1341  -3.1049  -3.0555  -3.0309  -2.9204  -2.8740  -2.8179  -2.6440
    -2.5715  -2.5549  -2.5027  -2.3336  -2.2628  -2.0554  -1.9571  -1.8165
    -1.4005  -1.3471  -1.3141  -1.2356  -1.1137  -1.0845  -1.0424  -0.9999
    -0.9365  -0.9248  -0.8519  -0.8371  -0.8185  -0.7885  -0.6771  -0.6215
    -0.5808  -0.5715  -0.5367  -0.4709  -0.4448  -0.4283  -0.3519  -0.3261
    -0.3089  -0.2061  -0.1866  -0.1543  -0.1486  -0.0845  -0.0536  -0.0107
     0.0197   0.0444   0.0511   0.1155   0.1628   0.1949   0.2172   0.2721
     0.2999   0.3267   0.3610   0.3834   0.4350   0.4693   0.4928   0.5294
     0.5597   0.6420   0.6777   0.6969   0.7377   0.7949   0.8118   0.8793
     0.8947   0.9131   0.9331   0.9675   0.9938   1.0275   1.0607   1.1024
     1.1548   1.1689   1.2064   1.2557   1.2747   1.3281   1.3759   1.4357
     1.4525   1.4875   1.5352   1.5842   1.6264   1.6551   1.7028   1.7396
     1.7859   1.8242   1.9157   1.9398   2.0423   2.0986   2.1415   2.1974
     2.2214   2.3425   2.4148   2.5356   2.5453   2.5794   2.6774   2.7180
     7.6805   9.2063   9.4115   9.5454   9.7221   9.7962  10.1293  10.2679
    10.3084  10.5388  10.6512  10.7007  10.7733  10.9153  10.9199  10.9756
    11.0917  11.1584  11.2146  11.2656  11.2983  11.3330  11.3603  11.4355
    11.5188  11.5723  11.6103  11.6467

          k = 0.0000 0.0000 0.4550 (107410 PWs)   bands (ev):

   -17.5164 -17.4059 -17.1400 -16.9875 -16.9274 -16.8692 -16.8249 -16.6408
   -16.5211 -16.4818 -16.4266 -16.3902 -16.2908 -16.2195 -16.1115 -16.0282
   -15.9703 -15.9315 -15.8387 -15.7684 -15.7241 -15.6901 -15.5881 -15.4931
   -15.4679 -15.4073 -15.3537 -15.3211 -15.2609 -15.2397 -15.2136 -15.1381
   -15.0700 -15.0247 -14.9805 -14.9216 -14.8852 -14.8128 -14.7323 -14.6411
   -14.3936 -14.3844 -14.3239 -14.3106 -14.0600 -14.0350 -13.7855 -13.6674
    -7.3061  -7.0282  -6.6303  -6.4284  -6.3953  -6.2785  -6.1388  -5.9883
    -5.4508  -5.3733  -5.2866  -5.2242  -5.1109  -5.0838  -4.9222  -4.7834
    -4.4662  -4.3814  -4.2580  -4.1818  -4.0993  -3.9881  -3.8989  -3.7311
    -3.6515  -3.6194  -3.5392  -3.4478  -3.3809  -3.3093  -3.2506  -3.2162
    -3.1340  -3.1120  -3.0758  -2.9606  -2.8872  -2.8146  -2.7363  -2.6340
    -2.6104  -2.5174  -2.4762  -2.3156  -2.2938  -2.0838  -2.0272  -1.8657
    -1.4179  -1.3433  -1.3084  -1.2554  -1.1625  -1.0665  -1.0376  -0.9753
    -0.9599  -0.8938  -0.8788  -0.8254  -0.7522  -0.7138  -0.7048  -0.6805
    -0.6152  -0.5655  -0.5550  -0.4874  -0.4670  -0.4319  -0.4152  -0.3110
    -0.2995  -0.2177  -0.2030  -0.1695  -0.1202  -0.0293  -0.0038   0.0036
     0.0327   0.0742   0.1251   0.1900   0.2067   0.2219   0.2484   0.2678
     0.2959   0.3290   0.3477   0.3997   0.4071   0.4407   0.5272   0.5509
     0.5872   0.6048   0.6180   0.6968   0.7136   0.7475   0.7638   0.8350
     0.8597   0.8988   0.9099   0.9361   1.0010   1.0292   1.0920   1.1098
     1.1231   1.1646   1.1955   1.2548   1.2912   1.3298   1.3962   1.4166
     1.4411   1.4997   1.5266   1.5772   1.6004   1.6843   1.7145   1.7392
     1.7950   1.8582   1.8956   1.9717   2.0622   2.0833   2.1484   2.1975
     2.2356   2.3096   2.4419   2.5314   2.5533   2.5637   2.6770   2.7118
     8.0567   8.4203   9.5605   9.6398   9.7336   9.9459  10.0059  10.3675
    10.4306  10.4824  10.5585  10.6943  10.7691  10.8357  10.8640  11.0083
    11.0773  11.1339  11.1476  11.2644  11.3170  11.3519  11.4083  11.4283
    11.5134  11.5346  11.6135  11.6245

          k = 0.0000 0.5774 0.0000 (107384 PWs)   bands (ev):

   -17.5252 -17.3488 -17.1607 -17.0046 -16.9505 -16.8787 -16.7071 -16.6814
   -16.6326 -16.5785 -16.5035 -16.3042 -16.2227 -16.1609 -16.1214 -15.9888
   -15.9505 -15.9103 -15.8647 -15.7640 -15.6991 -15.6703 -15.6545 -15.4838
   -15.4729 -15.3755 -15.3348 -15.3202 -15.2737 -15.2286 -15.2086 -15.1572
   -15.0727 -15.0164 -14.9943 -14.9380 -14.8843 -14.8379 -14.7334 -14.6366
   -14.3916 -14.3794 -14.3265 -14.3241 -14.0612 -14.0326 -13.7859 -13.6708
    -7.2604  -6.7570  -6.6951  -6.5851  -6.3881  -6.2295  -6.0279  -5.9450
    -5.8751  -5.5982  -5.5372  -5.2069  -5.0908  -5.0162  -4.7962  -4.6558
    -4.4091  -4.3726  -4.2000  -4.1166  -4.0025  -3.9193  -3.7803  -3.7541
    -3.6270  -3.5720  -3.4690  -3.4410  -3.3855  -3.3155  -3.3033  -3.2243
    -3.1450  -3.1065  -3.0514  -2.9970  -2.9274  -2.9019  -2.7979  -2.6877
    -2.5810  -2.5572  -2.5321  -2.3359  -2.2113  -2.1556  -1.9117  -1.8393
    -1.4336  -1.3492  -1.3104  -1.2480  -1.1407  -1.0956  -1.0673  -1.0408
    -1.0186  -0.9877  -0.8572  -0.8139  -0.7573  -0.7137  -0.7058  -0.6216
    -0.6152  -0.5547  -0.5346  -0.4809  -0.4259  -0.3822  -0.3437  -0.3172
    -0.3029  -0.2423  -0.2254  -0.1876  -0.1248  -0.0651  -0.0476  -0.0186
     0.0072   0.0199   0.0443   0.1441   0.1771   0.1990   0.2465   0.3170
     0.3371   0.3560   0.3627   0.4264   0.4455   0.4604   0.5108   0.5629
     0.5725   0.6207   0.6499   0.6885   0.7162   0.7683   0.7842   0.8221
     0.8810   0.9075   0.9646   0.9713   1.0058   1.0378   1.0473   1.1062
     1.1819   1.2067   1.2306   1.2399   1.2833   1.3440   1.3642   1.3696
     1.4133   1.4782   1.4971   1.5364   1.6150   1.6813   1.7234   1.7781
     1.8219   1.8304   1.9079   1.9720   2.0306   2.0624   2.1748   2.1998
     2.2329   2.2993   2.4576   2.5063   2.5510   2.5880   2.6655   2.7268
     8.3862   8.5497   9.4377   9.5202   9.7830   9.9396  10.0430  10.1191
    10.3321  10.4971  10.5058  10.5861  10.7433  10.8240  10.8846  11.0004
    11.0830  11.0940  11.1889  11.1902  11.2430  11.3061  11.3694  11.4638
    11.5020  11.5386  11.5557  11.6861

          k = 0.0000 0.5774 0.4550 (107468 PWs)   bands (ev):

   -17.4995 -17.3928 -17.1536 -16.9967 -16.9678 -16.8297 -16.7659 -16.6912
   -16.6332 -16.5113 -16.4155 -16.3955 -16.2734 -16.1674 -16.0741 -16.0273
   -15.9416 -15.9285 -15.8711 -15.7474 -15.7006 -15.6680 -15.5776 -15.5418
   -15.4449 -15.3981 -15.3331 -15.3097 -15.2763 -15.2418 -15.2227 -15.1402
   -15.0691 -15.0396 -14.9881 -14.9246 -14.8817 -14.8392 -14.7306 -14.6393
   -14.4026 -14.3739 -14.3240 -14.3207 -14.0609 -14.0343 -13.7863 -13.6708
    -7.1907  -6.8910  -6.6524  -6.5493  -6.4426  -6.3157  -6.0855  -6.0103
    -5.5971  -5.4974  -5.3826  -5.2613  -5.1108  -5.0606  -4.9161  -4.8304
    -4.3116  -4.2680  -4.1809  -4.0912  -4.0083  -3.9497  -3.8965  -3.8172
    -3.7418  -3.5918  -3.5092  -3.3731  -3.3483  -3.2947  -3.2638  -3.2262
    -3.1408  -3.1179  -3.0277  -2.9676  -2.8918  -2.8059  -2.7573  -2.6767
    -2.6002  -2.5615  -2.5028  -2.3352  -2.2663  -2.1682  -1.9785  -1.8491
    -1.4487  -1.3287  -1.3168  -1.2441  -1.1967  -1.0746  -1.0553  -1.0348
    -0.9811  -0.9596  -0.8598  -0.8133  -0.7745  -0.7219  -0.6550  -0.6230
    -0.5985  -0.5310  -0.4973  -0.4580  -0.4361  -0.4182  -0.3808  -0.3696
    -0.2881  -0.2600  -0.2402  -0.1987  -0.1555  -0.0699  -0.0400  -0.0196
     0.0223   0.0505   0.0932   0.1227   0.1365   0.1927   0.2307   0.2557
     0.2918   0.3314   0.3849   0.4225   0.4855   0.4895   0.5466   0.5884
     0.6129   0.6258   0.6461   0.6815   0.7361   0.7815   0.8009   0.8079
     0.8353   0.8890   0.9176   0.9402   1.0008   1.0396   1.0690   1.1160
     1.1545   1.2041   1.2404   1.2717   1.2881   1.3320   1.4005   1.4076
     1.4494   1.4785   1.5033   1.5575   1.5968   1.6404   1.7290   1.7392
     1.7957   1.8439   1.9139   1.9707   2.0449   2.0896   2.1355   2.2010
     2.2297   2.2933   2.4519   2.4817   2.5686   2.6078   2.6752   2.7264
     8.5796   8.7819   9.0293   9.1787   9.7547   9.9778  10.0119  10.1324
    10.2633  10.4547  10.5905  10.7499  10.8777  10.8808  10.9349  10.9791
    11.0668  11.0903  11.1209  11.2077  11.2309  11.2902  11.3563  11.4191
    11.4599  11.5287  11.6037  11.6360

          k = 0.5000 0.0000 0.0000 (107420 PWs)   bands (ev):

   -17.5051 -17.3445 -17.2566 -16.9869 -16.9232 -16.8856 -16.7289 -16.6466
   -16.6063 -16.5492 -16.4202 -16.3360 -16.2612 -16.1577 -16.0603 -16.0287
   -15.9643 -15.9339 -15.8806 -15.7795 -15.7579 -15.7063 -15.6179 -15.5090
   -15.4533 -15.3748 -15.3505 -15.2912 -15.2548 -15.2324 -15.2177 -15.1455
   -15.0714 -15.0360 -14.9538 -14.9210 -14.8918 -14.8211 -14.7341 -14.6514
   -14.3957 -14.3841 -14.3464 -14.3014 -14.0559 -14.0358 -13.7910 -13.6648
    -7.1927  -7.0356  -6.7219  -6.5226  -6.3372  -6.2560  -5.9695  -5.8051
    -5.7860  -5.6390  -5.4107  -5.3093  -4.9556  -4.8786  -4.7313  -4.6396
    -4.5437  -4.4253  -4.2914  -4.2132  -4.1586  -4.1304  -3.8227  -3.6730
    -3.6480  -3.5769  -3.5426  -3.3878  -3.3578  -3.2837  -3.2614  -3.2109
    -3.1520  -3.0873  -3.0637  -3.0387  -2.9401  -2.8674  -2.8392  -2.6699
    -2.5744  -2.5575  -2.4420  -2.3471  -2.2614  -2.0597  -2.0000  -1.8157
    -1.4225  -1.3140  -1.2887  -1.1740  -1.1145  -1.0985  -1.0077  -0.9767
    -0.9445  -0.8765  -0.8670  -0.8485  -0.8029  -0.7667  -0.7159  -0.6523
    -0.6233  -0.5770  -0.5239  -0.4851  -0.4749  -0.4231  -0.3904  -0.3141
    -0.2602  -0.2321  -0.2274  -0.1635  -0.1162  -0.0960  -0.0253   0.0217
     0.0504   0.0713   0.0837   0.1416   0.1534   0.2003   0.2389   0.2515
     0.2837   0.3231   0.3848   0.4110   0.4189   0.4589   0.4947   0.5496
     0.5642   0.6037   0.6801   0.6908   0.7212   0.7663   0.7967   0.8441
     0.8987   0.9026   0.9382   0.9720   0.9955   1.0034   1.0268   1.1253
     1.1633   1.2132   1.2195   1.2297   1.2504   1.3302   1.3863   1.4266
     1.4524   1.4914   1.5396   1.5829   1.6253   1.6529   1.7020   1.7780
     1.8050   1.8523   1.8970   1.9721   2.0092   2.0885   2.1317   2.1943
     2.2364   2.3318   2.4360   2.4862   2.5383   2.5648   2.6624   2.7131
     8.1154   8.5005   9.4779   9.6257   9.7411  10.0012  10.1204  10.2167
    10.3244  10.4255  10.5936  10.6900  10.8227  10.9110  10.9651  11.0164
    11.0696  11.1638  11.1901  11.2228  11.2668  11.3334  11.4121  11.4337
    11.4896  11.5205  11.6247  11.6745

          k = 0.5000 0.0000 0.4550 (107560 PWs)   bands (ev):

   -17.4694 -17.3959 -17.2536 -17.0186 -16.9091 -16.8529 -16.7597 -16.6444
   -16.5421 -16.5064 -16.4186 -16.3628 -16.2434 -16.2321 -16.0974 -16.0606
   -15.9896 -15.9132 -15.8560 -15.7737 -15.7334 -15.6888 -15.5763 -15.5267
   -15.4291 -15.3983 -15.3680 -15.3024 -15.2534 -15.2308 -15.2219 -15.1503
   -15.0580 -15.0279 -14.9672 -14.9215 -14.8858 -14.8219 -14.7330 -14.6495
   -14.4053 -14.3808 -14.3416 -14.3010 -14.0593 -14.0348 -13.7913 -13.6649
    -7.0902  -6.9769  -6.8636  -6.6182  -6.3308  -6.2871  -6.1114  -5.9783
    -5.4838  -5.3617  -5.2846  -5.0917  -5.0304  -4.9777  -4.8800  -4.8023
    -4.6513  -4.5127  -4.3398  -4.2660  -3.9901  -3.8983  -3.8299  -3.8241
    -3.6704  -3.6179  -3.5333  -3.4843  -3.3255  -3.2951  -3.2422  -3.1914
    -3.1331  -3.0877  -3.0801  -2.9912  -2.8836  -2.8183  -2.7815  -2.6608
    -2.5926  -2.4947  -2.4443  -2.3757  -2.2616  -2.0971  -2.0581  -1.8709
    -1.4166  -1.3228  -1.2975  -1.2088  -1.1461  -1.0987  -1.0237  -0.9535
    -0.9307  -0.9218  -0.8432  -0.8284  -0.7707  -0.7495  -0.6830  -0.6620
    -0.6503  -0.5407  -0.5125  -0.4654  -0.4586  -0.4359  -0.3839  -0.3002
    -0.2777  -0.2279  -0.2012  -0.1562  -0.1135  -0.0884  -0.0312  -0.0058
     0.0210   0.0824   0.1117   0.1367   0.1837   0.2012   0.2416   0.2554
     0.3020   0.3093   0.3587   0.4079   0.4488   0.4802   0.5288   0.5575
     0.5692   0.6315   0.6545   0.6885   0.7222   0.7603   0.7762   0.8181
     0.8690   0.8757   0.8921   0.9256   0.9963   1.0149   1.0442   1.1135
     1.1489   1.2070   1.2116   1.2211   1.2571   1.3628   1.3759   1.4183
     1.4383   1.4693   1.5094   1.5703   1.5984   1.7237   1.7497   1.8034
     1.8364   1.8565   1.8878   1.9507   2.0072   2.0552   2.1312   2.2298
     2.2361   2.2983   2.4047   2.5326   2.5476   2.5742   2.6755   2.7029
     8.3297   8.8055   8.8831   9.0932   9.7615  10.0841  10.2208  10.3956
    10.5105  10.5750  10.6527  10.7159  10.8108  10.8771  10.9615  10.9948
    11.0675  11.1079  11.1491  11.1725  11.2458  11.2887  11.3303  11.4240
    11.4677  11.5687  11.6073  11.6401

          k = 0.5000 0.5774 0.0000 (107556 PWs)   bands (ev):

   -17.4888 -17.3389 -17.2301 -17.0382 -16.9302 -16.8888 -16.7573 -16.6642
   -16.6105 -16.5145 -16.4177 -16.3587 -16.2289 -16.2181 -16.0990 -16.0241
   -15.9478 -15.8930 -15.8288 -15.7566 -15.7374 -15.7034 -15.5804 -15.4916
   -15.4611 -15.3909 -15.3402 -15.3276 -15.2706 -15.2228 -15.2125 -15.1423
   -15.0965 -15.0061 -14.9816 -14.9307 -14.8844 -14.8489 -14.7349 -14.6393
   -14.4082 -14.3888 -14.3291 -14.3125 -14.0601 -14.0320 -13.7932 -13.6672
    -7.0469  -6.9021  -6.6904  -6.5324  -6.4217  -6.3567  -6.1704  -6.0413
    -5.7233  -5.4963  -5.4297  -5.2763  -5.0195  -4.9469  -4.7523  -4.6960
    -4.5903  -4.3511  -4.2455  -4.2133  -4.0504  -3.8186  -3.7926  -3.7363
    -3.6110  -3.5272  -3.4832  -3.4408  -3.3753  -3.3151  -3.2915  -3.1935
    -3.1494  -3.1148  -3.0403  -3.0177  -2.9614  -2.9198  -2.7763  -2.7036
    -2.6061  -2.5590  -2.4077  -2.3124  -2.2941  -2.1008  -2.0248  -1.8519
    -1.4520  -1.3304  -1.2987  -1.1954  -1.1699  -1.0876  -1.0476  -1.0120
    -0.9828  -0.9433  -0.8551  -0.8062  -0.7900  -0.7206  -0.6670  -0.6341
    -0.5876  -0.5477  -0.5348  -0.4737  -0.4586  -0.4061  -0.3364  -0.3222
    -0.2877  -0.2574  -0.2229  -0.1727  -0.1513  -0.1411  -0.0888  -0.0245
    -0.0020   0.0287   0.0617   0.1469   0.1593   0.2074   0.2592   0.3059
     0.3398   0.3470   0.4046   0.4145   0.4473   0.4868   0.5015   0.5640
     0.6053   0.6413   0.6592   0.6751   0.7346   0.7479   0.7986   0.8402
     0.8880   0.9002   0.9598   0.9936   1.0203   1.0436   1.0685   1.0883
     1.1281   1.1648   1.1955   1.2471   1.3023   1.3418   1.3649   1.3717
     1.4470   1.4620   1.4882   1.5907   1.6254   1.6444   1.7066   1.8117
     1.8174   1.8751   1.9031   1.9524   2.0324   2.0715   2.1414   2.1703
     2.2513   2.3108   2.4552   2.4698   2.5459   2.5788   2.6514   2.7208
     8.6304   8.8284   9.1259   9.2265   9.7925  10.0047  10.0348  10.1190
    10.1935  10.4616  10.5406  10.6466  10.7164  10.8405  10.8632  10.9750
    11.0187  11.0641  11.1160  11.2664  11.2738  11.3324  11.4227  11.4809
    11.5270  11.5921  11.6238  11.6489

          k = 0.5000 0.5774 0.4550 (107528 PWs)   bands (ev):

   -17.4584 -17.3850 -17.2276 -17.0319 -16.9464 -16.8622 -16.7760 -16.6598
   -16.5504 -16.4801 -16.4636 -16.4022 -16.2505 -16.2025 -16.1243 -16.0065
   -15.9342 -15.8966 -15.8232 -15.7641 -15.7090 -15.6888 -15.5675 -15.5244
   -15.4716 -15.3907 -15.3545 -15.3225 -15.2674 -15.2426 -15.2178 -15.1365
   -15.0615 -15.0177 -14.9832 -14.9280 -14.8821 -14.8525 -14.7328 -14.6400
   -14.4214 -14.3691 -14.3420 -14.3064 -14.0580 -14.0343 -13.7930 -13.6673
    -7.0065  -6.8776  -6.8009  -6.5094  -6.4656  -6.3499  -6.2376  -5.9430
    -5.6052  -5.4741  -5.3590  -5.2202  -5.1578  -4.9800  -4.9148  -4.8237
    -4.3923  -4.2498  -4.1905  -4.1011  -4.0538  -3.9584  -3.9174  -3.8375
    -3.7139  -3.5771  -3.5039  -3.3984  -3.3603  -3.2564  -3.2370  -3.1776
    -3.1553  -3.0932  -3.0384  -2.9445  -2.9278  -2.8332  -2.7672  -2.7175
    -2.6046  -2.5255  -2.4467  -2.3345  -2.3002  -2.1380  -2.0458  -1.8542
    -1.4587  -1.3411  -1.3063  -1.2085  -1.1640  -1.0641  -1.0291  -1.0105
    -0.9636  -0.9018  -0.8188  -0.7938  -0.7588  -0.7276  -0.6934  -0.6587
    -0.5896  -0.5557  -0.5227  -0.5060  -0.4694  -0.4308  -0.4133  -0.3457
    -0.2926  -0.2728  -0.2443  -0.1976  -0.1609  -0.1008  -0.0504  -0.0161
     0.0487   0.0828   0.1016   0.1288   0.1410   0.1881   0.2403   0.2542
     0.3098   0.3462   0.4047   0.4390   0.4666   0.5060   0.5205   0.5611
     0.5768   0.5951   0.6536   0.6776   0.7595   0.7824   0.8081   0.8540
     0.8630   0.8993   0.9230   0.9780   1.0035   1.0363   1.0880   1.1139
     1.1594   1.1727   1.2034   1.2671   1.3077   1.3242   1.3730   1.4115
     1.4296   1.5071   1.5502   1.5735   1.5838   1.6487   1.6934   1.7257
     1.8043   1.8323   1.9294   1.9725   2.0206   2.0389   2.1549   2.1988
     2.2309   2.3004   2.4361   2.4918   2.5665   2.5891   2.6564   2.7341
     8.7363   8.9363   9.2960   9.3614   9.4771   9.6350   9.6482   9.8161
    10.3803  10.4823  10.6549  10.7895  10.8282  10.9091  10.9748  11.0044
    11.0441  11.0993  11.2245  11.2810  11.2961  11.3341  11.3922  11.4313
    11.5116  11.5732  11.6351  11.6831

     highest occupied, lowest unoccupied level (ev):     2.7341    7.6805

!    total energy              =   -1797.19767565 Ry
     estimated scf accuracy    <          1.7E-09 Ry

     The total energy is the sum of the following terms:
     one-electron contribution =    -879.51678203 Ry
     hartree contribution      =     644.20904337 Ry
     xc contribution           =    -485.47599284 Ry
     ewald contribution        =   -1076.41394416 Ry

     convergence has been achieved in  13 iterations

     Forces acting on atoms (cartesian axes, Ry/au):

     atom    1 type  1   force =    -0.09374588    0.02205085   -0.10163914
     atom    2 type  1   force =    -0.02130189   -0.14761188   -0.05102188
     atom    3 type  1   force =    -0.13286540    0.13957593    0.02941268
     atom    4 type  2   force =    -0.05502623   -0.05601051   -0.00995738
     atom    5 type  2   force =    -0.02932978    0.04636174   -0.06472851
     atom    6 type  2   force =     0.12697002   -0.00350959   -0.02904379
     atom    7 type  2   force =     0.08162912   -0.01837334   -0.00858646
     atom    8 type  2   force =    -0.04337917    0.05241791   -0.06033891
     atom    9 type  2   force =    -0.00899478   -0.01825476    0.05438639
     atom   10 type  1   force =     0.01645749   -0.00086773   -0.16457139
     atom   11 type  1   force =     0.00530769    0.10461497    0.03821401
     atom   12 type  1   force =     0.05338918    0.10637117    0.00470601
     atom   13 type  2   force =    -0.00478726    0.04286283    0.07123891
     atom   14 type  2   force =    -0.07733380    0.09274643   -0.06125486
     atom   15 type  2   force =    -0.15678982   -0.03249146    0.14681949
     atom   16 type  2   force =     0.06174711   -0.17246751   -0.17586201
     atom   17 type  2   force =     0.02763826    0.01084657    0.01695285
     atom   18 type  2   force =     0.02999824    0.03625770   -0.06618682
     atom   19 type  1   force =     0.09855883    0.01059063   -0.12765831
     atom   20 type  1   force =    -0.07037426    0.06315760    0.26027678
     atom   21 type  2   force =     0.02176977   -0.01372106    0.00790959
     atom   22 type  2   force =    -0.01427212   -0.03614397   -0.05257613
     atom   23 type  2   force =     0.11168275    0.03259529    0.05295642
     atom   24 type  2   force =    -0.11048764   -0.18817583    0.14982499
     atom   25 type  1   force =     0.00278412    0.03606796    0.01379563
     atom   26 type  1   force =     0.22547136    0.01510546   -0.04951375
     atom   27 type  2   force =    -0.02149719    0.03507120   -0.00791383
     atom   28 type  2   force =    -0.04167071    0.04803654    0.03413003
     atom   29 type  2   force =    -0.13183179    0.02619691   -0.11814416
     atom   30 type  2   force =     0.11501510    0.07227741   -0.12739438
     atom   31 type  1   force =     0.08791257   -0.06029481    0.01083355
     atom   32 type  1   force =     0.14732708   -0.05457653    0.13213595
     atom   33 type  1   force =    -0.07931402    0.10575403    0.03346332
     atom   34 type  2   force =    -0.01313739    0.04558339    0.04673712
     atom   35 type  2   force =    -0.05288312    0.11126560   -0.05317901
     atom   36 type  2   force =    -0.06924035    0.02423116    0.06511192
     atom   37 type  2   force =     0.09026624   -0.13349666   -0.09878173
     atom   38 type  2   force =    -0.10906932   -0.02914307   -0.06322449
     atom   39 type  2   force =    -0.03342535   -0.11335079    0.08772419
     atom   40 type  1   force =     0.07799897   -0.05627329   -0.01722137
     atom   41 type  1   force =    -0.02067418   -0.07259198    0.03743736
     atom   42 type  1   force =     0.04074945    0.08297148   -0.03997169
     atom   43 type  2   force =     0.02815123    0.10122234    0.05435561
     atom   44 type  2   force =    -0.01644949    0.00522518   -0.06528193
     atom   45 type  2   force =    -0.00703868    0.01819291    0.00527782
     atom   46 type  2   force =     0.01493298   -0.03670714   -0.02105045
     atom   47 type  2   force =     0.03827072    0.02237816    0.06766127
     atom   48 type  2   force =     0.01559112    0.00982448    0.00641230
     atom   49 type  1   force =    -0.08397899    0.07692173   -0.08752223
     atom   50 type  1   force =    -0.09069046   -0.00502083    0.04134671
     atom   51 type  1   force =     0.08440576   -0.06522764   -0.05036176
     atom   52 type  2   force =     0.00426165   -0.00894544   -0.00387081
     atom   53 type  2   force =     0.01137523   -0.00423862    0.00428219
     atom   54 type  2   force =     0.07838085   -0.01339099   -0.04179559
     atom   55 type  2   force =    -0.07208418    0.04819522    0.03299703
     atom   56 type  2   force =     0.06474519    0.02563531    0.01066491
     atom   57 type  2   force =    -0.02163057   -0.06453214    0.06373719
     atom   58 type  1   force =     0.02986803   -0.02715182    0.08232554
     atom   59 type  1   force =     0.03555748   -0.04542776   -0.10371077
     atom   60 type  1   force =     0.03376837   -0.07352669    0.04758220
     atom   61 type  2   force =    -0.04082454   -0.02965230   -0.00349992
     atom   62 type  2   force =    -0.02379225    0.08027962   -0.01910030
     atom   63 type  2   force =    -0.02806919   -0.04548957    0.06851913
     atom   64 type  2   force =     0.02381559   -0.01355050    0.03998357
     atom   65 type  2   force =    -0.06957436    0.05092362   -0.10274059
     atom   66 type  2   force =    -0.00182602   -0.00710853   -0.00558539
     atom   67 type  1   force =     0.13740097    0.12696012    0.10584673
     atom   68 type  2   force =    -0.03697838   -0.03997707   -0.05699416
     atom   69 type  2   force =    -0.20209012   -0.04765705    0.10734410
     atom   70 type  1   force =     0.10956519   -0.02250731    0.16524659
     atom   71 type  2   force =    -0.04995529   -0.16334593   -0.09224210
     atom   72 type  2   force =     0.00365022   -0.00795735    0.00487592

     Total force =     1.102396     Total SCF correction =     0.000050


     Computing stress (Cartesian axis) and pressure

          total   stress  (Ry/bohr**3)                   (kbar)     P=       54.63
   0.00030755   0.00013322   0.00006210           45.24       19.60        9.14
   0.00013322   0.00041436  -0.00007743           19.60       60.95      -11.39
   0.00006210  -0.00007743   0.00039226            9.14      -11.39       57.70


     Writing all to output data dir /n/holyscratch01/kozinsky_lab/sfalletta/QE/SiO2/SiO2-T300-E0-0/SiO2.save/

     init_run     :      6.54s CPU      6.89s WALL (       1 calls)
     electrons    :   5934.01s CPU   6405.86s WALL (       1 calls)
     forces       :      3.09s CPU      3.11s WALL (       1 calls)
     stress       :     56.70s CPU     57.26s WALL (       1 calls)

     Called by init_run:
     wfcinit      :      3.65s CPU      3.76s WALL (       1 calls)
     potinit      :      0.35s CPU      0.37s WALL (       1 calls)
     hinit0       :      0.78s CPU      0.85s WALL (       1 calls)

     Called by electrons:
     c_bands      :    153.13s CPU    154.60s WALL (      13 calls)
     sum_band     :      7.44s CPU      7.54s WALL (      13 calls)
     v_of_rho     :      0.46s CPU      0.50s WALL (      14 calls)
     mix_rho      :      0.06s CPU      0.07s WALL (      13 calls)

     Called by c_bands:
     init_us_2    :      1.81s CPU      1.85s WALL (     232 calls)
     init_us_2:cp :      1.81s CPU      1.85s WALL (     232 calls)
     cegterg      :    149.08s CPU    150.48s WALL (     104 calls)

     Called by *egterg:
     cdiaghg      :     32.59s CPU     32.85s WALL (    1250 calls)
     h_psi        :     81.46s CPU     82.30s WALL (    1258 calls)
     g_psi        :      0.23s CPU      0.23s WALL (    1146 calls)

     Called by h_psi:
     h_psi:calbec :     23.06s CPU     23.23s WALL (    1258 calls)
     vloc_psi     :     41.60s CPU     42.12s WALL (    1258 calls)
     add_vuspsi   :     16.26s CPU     16.40s WALL (    1258 calls)

     General routines
     calbec       :     25.93s CPU     26.13s WALL (    1298 calls)
     fft          :      0.79s CPU      0.89s WALL (     190 calls)
     ffts         :      0.02s CPU      0.02s WALL (      27 calls)
     fftw         :     42.21s CPU     42.73s WALL (  168244 calls)
     interpolate  :      0.03s CPU      0.04s WALL (      14 calls)

     Parallel routines

     Electric-field routines
     c_phase_fiel :   5772.73s CPU   6242.81s WALL (      39 calls)

     PWSCF        :      1h40m CPU      1h48m WALL


   This run was terminated on:  21:11:24   1Feb2024            

=------------------------------------------------------------------------------=
   JOB DONE.
=------------------------------------------------------------------------------=
