
     Program PWSCF v.7.1 starts on 15Feb2024 at 17: 9:35 

     This program is part of the open-source Quantum ESPRESSO suite
     for quantum simulation of materials; please cite
         "P. Giannozzi et al., J. Phys.:Condens. Matter 21 395502 (2009);
         "P. Giannozzi et al., J. Phys.:Condens. Matter 29 465901 (2017);
         "P. Giannozzi et al., J. Chem. Phys. 152 154105 (2020);
          URL http://www.quantum-espresso.org", 
     in publications or presentations arising from this work. More details at
     http://www.quantum-espresso.org/quote

     Parallel version (MPI), running on   112 processors

     MPI processes distributed on     1 nodes
     1000438 MiB available memory on the printing compute node when the environment starts

     Reading input from /n/holyscratch01/kozinsky_lab/sfalletta/QE/SiO2/SiO2-sc222-relaxing-Ez-k222-1e-3/SiO2-relax.inp
Warning: card &CELL ignored
Warning: card / ignored

     Current dimensions of program PWSCF are:
     Max number of different atomic species (ntypx) = 10
     Max number of k-points (npk) =  40000
     Max angular momentum in pseudopotentials (lmaxx) =  4

     IMPORTANT: XC functional enforced from input :
     Exchange-correlation= PBE
                           (   1   4   3   4   0   0   0)
     Any further DFT definition will be discarded
     Please, verify this is what you really want

     Found identity + (  0.0000  0.0000  0.5000) symmetry
     This is a supercell, fractional translations are disabled

     R & G space division:  proc/nbgrp/npool/nimage =     112
     Subspace diagonalization in iterative solution of the eigenvalue problem:
     one sub-group per band group will be used
     scalapack distributed-memory algorithm (size of sub-group: 10* 10 procs)


     Parallelization info
     --------------------
     sticks:   dense  smooth     PW     G-vecs:    dense   smooth      PW
     Min         174      87     23                21712     7675    1045
     Max         175      88     24                21721     7680    1049
     Sum       19575    9769   2585              2432309   859779  117343

     Using Slab Decomposition



     bravais-lattice index     =            8
     lattice parameter (alat)  =      18.8417  a.u.
     unit-cell volume          =    6365.9664 (a.u.)^3
     number of atoms/cell      =           72
     number of atomic types    =            2
     number of electrons       =       384.00
     number of Kohn-Sham states=          192
     kinetic-energy cutoff     =     100.0000  Ry
     charge density cutoff     =     800.0000  Ry
     scf convergence threshold =      1.0E-12
     mixing beta               =       0.7000
     number of iterations used =            8  plain     mixing
     energy convergence thresh.=      1.0E-12
     force convergence thresh. =      1.0E-10
     Exchange-correlation= PBE
                           (   1   4   3   4   0   0   0)
     nstep                     =           50


     Using Berry phase electric field
     In a.u.(Ry)  cartesian system of reference
        0.0000000000
        0.0000000000
        0.0010000000
     In a.u.(Ry)  crystal system of reference
        0.0000000000
        0.0000000000
        0.0010000000
     Number of iterative cycles:   1


     celldm(1)=  18.841714  celldm(2)=   0.866025  celldm(3)=   1.098936
     celldm(4)=   0.000000  celldm(5)=   0.000000  celldm(6)=   0.000000

     crystal axes: (cart. coord. in units of alat)
               a(1) = (   1.000000   0.000000   0.000000 )  
               a(2) = (   0.000000   0.866025   0.000000 )  
               a(3) = (   0.000000   0.000000   1.098936 )  

     reciprocal axes: (cart. coord. in units 2 pi/alat)
               b(1) = (  1.000000  0.000000  0.000000 )  
               b(2) = (  0.000000  1.154701  0.000000 )  
               b(3) = (  0.000000  0.000000  0.909971 )  


     PseudoPot. # 1 for Si read from file:
     /n/holyscratch01/kozinsky_lab/sfalletta/QE/Inputs/Si.upf
     MD5 check sum: 1e49d63d1c5892e9c2567cdfc797a7ef
     Pseudo is Norm-conserving + core correction, Zval =  4.0
     Generated using ONCVPSP code by D. R. Hamann
     Using radial grid of 1510 points,  6 beta functions with: 
                l(1) =   0
                l(2) =   0
                l(3) =   1
                l(4) =   1
                l(5) =   2
                l(6) =   2

     PseudoPot. # 2 for O  read from file:
     /n/holyscratch01/kozinsky_lab/sfalletta/QE/Inputs/O.upf
     MD5 check sum: e161f86cb4953fdc9aae83e76c3f29b8
     Pseudo is Norm-conserving + core correction, Zval =  6.0
     Generated using ONCVPSP code by D. R. Hamann
     Using radial grid of  936 points,  5 beta functions with: 
                l(1) =   0
                l(2) =   0
                l(3) =   1
                l(4) =   1
                l(5) =   2

     atomic species   valence    mass     pseudopotential
        Si             4.00    28.08550     Si( 1.00)
        O              6.00    15.99900     O ( 1.00)

     No symmetry found



   Cartesian axes

     site n.     atom                  positions (alat units)
         1           Si  tau(   1) = (  -0.1182878   0.2048803   0.4578902  )
         2           Si  tau(   2) = (   0.1317116   0.2281327   0.2747340  )
         3           Si  tau(   3) = (   0.2365745  -0.0000004   0.0915781  )
         4           O   tau(   4) = (  -0.1086666   0.3196418   0.0239383  )
         5           O   tau(   5) = (   0.0811502   0.3672992   0.2070951  )
         6           O   tau(   6) = (   0.0275164   0.1790847   0.3902508  )
         7           O   tau(   7) = (   0.1413336   0.1133713   0.1592166  )
         8           O   tau(   8) = (   0.2775158   0.2539273   0.3423728  )
         9           O   tau(   9) = (   0.3311506   0.0657129   0.5255294  )
        10           Si  tau(  10) = (  -0.1182877   0.2048806   1.0073582  )
        11           Si  tau(  11) = (   0.1317117   0.2281329   0.8242020  )
        12           Si  tau(  12) = (   0.2365744  -0.0000005   0.6410463  )
        13           O   tau(  13) = (  -0.1086663   0.3196416   0.5734064  )
        14           O   tau(  14) = (   0.0811503   0.3672991   0.7565637  )
        15           O   tau(  15) = (   0.0275163   0.1790848   0.9397196  )
        16           O   tau(  16) = (   0.1413337   0.1133717   0.7086855  )
        17           O   tau(  17) = (   0.2775161   0.2539275   0.8918414  )
        18           O   tau(  18) = (   0.3311511   0.0657129   1.0749975  )
        19           Si  tau(  19) = (  -0.1182865   0.6611459   0.2747338  )
        20           Si  tau(  20) = (  -0.0134250   0.4330136   0.0915775  )
        21           O   tau(  21) = (  -0.1688501   0.8003133   0.2070944  )
        22           O   tau(  22) = (  -0.1086655   0.5463850   0.1592162  )
        23           O   tau(  23) = (   0.0275163   0.6869414   0.3423724  )
        24           O   tau(  24) = (   0.0811500   0.4987260   0.5255288  )
        25           Si  tau(  25) = (  -0.1182868   0.6611455   0.8242017  )
        26           Si  tau(  26) = (  -0.0134252   0.4330133   0.6410455  )
        27           O   tau(  27) = (  -0.1688501   0.8003126   0.7565633  )
        28           O   tau(  28) = (  -0.1086661   0.5463848   0.7086850  )
        29           O   tau(  29) = (   0.0275164   0.6869409   0.8918407  )
        30           O   tau(  30) = (   0.0811506   0.4987257   1.0749969  )
        31           Si  tau(  31) = (   0.3817124   0.2048795   0.4578902  )
        32           Si  tau(  32) = (   0.6317128   0.2281322   0.2747345  )
        33           Si  tau(  33) = (   0.7365755   0.0000005   0.0915782  )
        34           O   tau(  34) = (   0.3913335   0.3196411   0.0239394  )
        35           O   tau(  35) = (   0.5811490   0.3673000   0.2070951  )
        36           O   tau(  36) = (   0.5275155   0.1790841   0.3902518  )
        37           O   tau(  37) = (   0.6413336   0.1133715   0.1592168  )
        38           O   tau(  38) = (   0.7775153   0.2539279   0.3423723  )
        39           O   tau(  39) = (   0.8311502   0.0657129   0.5255294  )
        40           Si  tau(  40) = (   0.3817126   0.2048797   1.0073582  )
        41           Si  tau(  41) = (   0.6317129   0.2281323   0.8242022  )
        42           Si  tau(  42) = (   0.7365756   0.0000002   0.6410462  )
        43           O   tau(  43) = (   0.3913338   0.3196409   0.5734072  )
        44           O   tau(  44) = (   0.5811496   0.3672997   0.7565631  )
        45           O   tau(  45) = (   0.5275155   0.1790846   0.9397205  )
        46           O   tau(  46) = (   0.6413337   0.1133715   0.7086856  )
        47           O   tau(  47) = (   0.7775159   0.2539281   0.8918408  )
        48           O   tau(  48) = (   0.8311502   0.0657131   1.0749972  )
        49           Si  tau(  49) = (   0.1317116   0.6378931   0.4578902  )
        50           Si  tau(  50) = (   0.3817119   0.6611452   0.2747348  )
        51           Si  tau(  51) = (   0.4865749   0.4330122   0.0915787  )
        52           O   tau(  52) = (   0.1413345   0.7526544   0.0239390  )
        53           O   tau(  53) = (   0.3311501   0.8003123   0.2070958  )
        54           O   tau(  54) = (   0.2775174   0.6120976   0.3902510  )
        55           O   tau(  55) = (   0.3913334   0.5463841   0.1592171  )
        56           O   tau(  56) = (   0.5275161   0.6869403   0.3423721  )
        57           O   tau(  57) = (   0.5811505   0.4987255   0.5255289  )
        58           Si  tau(  58) = (   0.1317120   0.6378929   1.0073578  )
        59           Si  tau(  59) = (   0.3817121   0.6611451   0.8242022  )
        60           Si  tau(  60) = (   0.4865753   0.4330121   0.6410461  )
        61           O   tau(  61) = (   0.1413342   0.7526544   0.5734078  )
        62           O   tau(  62) = (   0.3311505   0.8003122   0.7565643  )
        63           O   tau(  63) = (   0.2775173   0.6120970   0.9397188  )
        64           O   tau(  64) = (   0.3913339   0.5463845   0.7086850  )
        65           O   tau(  65) = (   0.5275165   0.6869400   0.8918407  )
        66           O   tau(  66) = (   0.5811503   0.4987256   1.0749976  )
        67           Si  tau(  67) = (   0.6317136   0.6378925   0.4578899  )
        68           O   tau(  68) = (   0.6413335   0.7526536   0.0239383  )
        69           O   tau(  69) = (   0.7775153   0.6120976   0.3902516  )
        70           Si  tau(  70) = (   0.6317135   0.6378924   1.0073581  )
        71           O   tau(  71) = (   0.6413337   0.7526534   0.5734063  )
        72           O   tau(  72) = (   0.7775151   0.6120971   0.9397206  )

     number of k points=     8
                       cart. coord. in units 2pi/alat
        k(    1) = (   0.0000000   0.0000000   0.0000000), wk =   0.2500000
        k(    2) = (   0.0000000   0.0000000   0.4549855), wk =   0.2500000
        k(    3) = (   0.0000000   0.5773503   0.0000000), wk =   0.2500000
        k(    4) = (   0.0000000   0.5773503   0.4549855), wk =   0.2500000
        k(    5) = (   0.5000000   0.0000000   0.0000000), wk =   0.2500000
        k(    6) = (   0.5000000   0.0000000   0.4549855), wk =   0.2500000
        k(    7) = (   0.5000000   0.5773503   0.0000000), wk =   0.2500000
        k(    8) = (   0.5000000   0.5773503   0.4549855), wk =   0.2500000

     Dense  grid:  2432309 G-vectors     FFT dimensions: ( 180, 150, 192)

     Smooth grid:   859779 G-vectors     FFT dimensions: ( 120, 108, 135)

     Estimated max dynamical RAM per process >      72.97 MB

     Estimated total dynamical RAM >       7.98 GB

     Initial potential from superposition of free atoms

     starting charge     383.9851, renormalised to     384.0000
     Starting wfcs are  288 randomized atomic wfcs

     total cpu time spent up to now is        7.2 secs

     Self-consistent Calculation

     iteration #  1     ecut=   100.00 Ry     beta= 0.70
     Davidson diagonalization with overlap
     ethr =  1.00E-02,  avg # of iterations =  2.0

     Expectation value of exp(iGx):  (7.53457745022832193E-002,-1.42308659189744111E-004)   1.0000000000000000     
     Electronic Dipole per cell (Ry a.u.)  -1.6019813219574554E-002
     Ionic Dipole per cell (Ry a.u.)   3304.1298547372130     

     Expectation value of exp(iGx):   (3.19891372088754317E-002,2.30134235565742876E-006)  0.86602540378443849     
     Electronic Dipole per cell (Ry a.u.)   5.2843901471053684E-004
     Ionic Dipole per cell (Ry a.u.)   4246.0379116170097     

     Expectation value of exp(iGx):        (0.11674476967256739,5.51102622150885686E-003)   1.0989361747729789     
     Electronic Dipole per cell (Ry a.u.)  0.43967398851089429     
     Ionic Dipole per cell (Ry a.u.)   5622.2366695215997     
Electronic Dipole on Cartesian axes
           1  -1.6019813219574554E-002
           2   5.2843901471053684E-004
           3  0.43967398851089429     
Ionic Dipole on Cartesian axes
           1   3304.1298547372130     
           2   4246.0379116170097     
           3   5622.2366695215997     

     total cpu time spent up to now is      484.9 secs

     total energy              =   -1795.80995452 Ry
     estimated scf accuracy    <      18.51943767 Ry

     iteration #  2     ecut=   100.00 Ry     beta= 0.70
     Davidson diagonalization with overlap
     ethr =  4.82E-03,  avg # of iterations =  2.0

     Expectation value of exp(iGx):  (2.72724749587731699E-002,-1.56715810540329739E-004)   1.0000000000000000     
     Electronic Dipole per cell (Ry a.u.)  -4.8738147816187398E-002
     Ionic Dipole per cell (Ry a.u.)   3304.1298547372130     

     Expectation value of exp(iGx):  (8.27737241091432326E-003,-7.96640909904906454E-007)  0.86602540378443849     
     Electronic Dipole per cell (Ry a.u.)  -7.0694606172025723E-004
     Ionic Dipole per cell (Ry a.u.)   4246.0379116170097     

     Expectation value of exp(iGx):   (4.97826895461853519E-002,3.83233580904269273E-003)   1.0989361747729789     
     Electronic Dipole per cell (Ry a.u.)  0.71612281745395168     
     Ionic Dipole per cell (Ry a.u.)   5622.2366695215997     
Electronic Dipole on Cartesian axes
           1  -4.8738147816187398E-002
           2  -7.0694606172025723E-004
           3  0.71612281745395168     
Ionic Dipole on Cartesian axes
           1   3304.1298547372130     
           2   4246.0379116170097     
           3   5622.2366695215997     

     total cpu time spent up to now is      919.6 secs

     total energy              =   -1801.93155673 Ry
     estimated scf accuracy    <       9.98030219 Ry

     iteration #  3     ecut=   100.00 Ry     beta= 0.70
     Davidson diagonalization with overlap
     ethr =  2.60E-03,  avg # of iterations =  2.0

     Expectation value of exp(iGx):  (3.96184840006881811E-002,-2.17897403060873568E-004)   1.0000000000000000     
     Electronic Dipole per cell (Ry a.u.)  -4.6648250588393114E-002
     Ionic Dipole per cell (Ry a.u.)   3304.1298547372130     

     Expectation value of exp(iGx):  (1.35988339310835742E-002,-1.37121711123827293E-006)  0.86602540378443849     
     Electronic Dipole per cell (Ry a.u.)  -7.4066312536717434E-004
     Ionic Dipole per cell (Ry a.u.)   4246.0379116170097     

     Expectation value of exp(iGx):   (6.80730724839916645E-002,5.85646333532533706E-003)   1.0989361747729789     
     Electronic Dipole per cell (Ry a.u.)  0.79992639608508143     
     Ionic Dipole per cell (Ry a.u.)   5622.2366695215997     
Electronic Dipole on Cartesian axes
           1  -4.6648250588393114E-002
           2  -7.4066312536717434E-004
           3  0.79992639608508143     
Ionic Dipole on Cartesian axes
           1   3304.1298547372130     
           2   4246.0379116170097     
           3   5622.2366695215997     

     total cpu time spent up to now is     1352.5 secs

     total energy              =   -1803.36502789 Ry
     estimated scf accuracy    <       0.17417268 Ry

     iteration #  4     ecut=   100.00 Ry     beta= 0.70
     Davidson diagonalization with overlap
     ethr =  4.54E-05,  avg # of iterations =  4.0

     Expectation value of exp(iGx):  (4.57216838418147350E-002,-1.97218564089530655E-004)   1.0000000000000000     
     Electronic Dipole per cell (Ry a.u.)  -3.6585451754229031E-002
     Ionic Dipole per cell (Ry a.u.)   3304.1298547372130     

     Expectation value of exp(iGx):  (1.64457598392190110E-002,-7.37756338123495459E-007)  0.86602540378443849     
     Electronic Dipole per cell (Ry a.u.)  -3.2951499010848054E-004
     Ionic Dipole per cell (Ry a.u.)   4246.0379116170097     

     Expectation value of exp(iGx):   (7.68365042858374092E-002,5.80838762432690434E-003)   1.0989361747729789     
     Electronic Dipole per cell (Ry a.u.)  0.70326789087125963     
     Ionic Dipole per cell (Ry a.u.)   5622.2366695215997     
Electronic Dipole on Cartesian axes
           1  -3.6585451754229031E-002
           2  -3.2951499010848054E-004
           3  0.70326789087125963     
Ionic Dipole on Cartesian axes
           1   3304.1298547372130     
           2   4246.0379116170097     
           3   5622.2366695215997     

     total cpu time spent up to now is     1804.3 secs

     total energy              =   -1803.48298590 Ry
     estimated scf accuracy    <       0.20240463 Ry

     iteration #  5     ecut=   100.00 Ry     beta= 0.70
     Davidson diagonalization with overlap
     ethr =  4.54E-05,  avg # of iterations =  2.0

     Expectation value of exp(iGx):  (4.45160695916926238E-002,-1.88001274862439644E-004)   1.0000000000000000     
     Electronic Dipole per cell (Ry a.u.)  -3.5820111959570265E-002
     Ionic Dipole per cell (Ry a.u.)   3304.1298547372130     

     Expectation value of exp(iGx):  (1.58690348523036519E-002,-5.67368828313591146E-009)  0.86602540378443849     
     Electronic Dipole per cell (Ry a.u.)  -2.6262201467983425E-006
     Ionic Dipole per cell (Ry a.u.)   4246.0379116170097     

     Expectation value of exp(iGx):   (7.51252562633461241E-002,5.63454194357267124E-003)   1.0989361747729789     
     Electronic Dipole per cell (Ry a.u.)  0.69777963797886222     
     Ionic Dipole per cell (Ry a.u.)   5622.2366695215997     
Electronic Dipole on Cartesian axes
           1  -3.5820111959570265E-002
           2  -2.6262201467983425E-006
           3  0.69777963797886222     
Ionic Dipole on Cartesian axes
           1   3304.1298547372130     
           2   4246.0379116170097     
           3   5622.2366695215997     

     total cpu time spent up to now is     2265.7 secs

     total energy              =   -1803.48238270 Ry
     estimated scf accuracy    <       0.03505285 Ry

     iteration #  6     ecut=   100.00 Ry     beta= 0.70
     Davidson diagonalization with overlap
     ethr =  9.13E-06,  avg # of iterations =  2.0

     Expectation value of exp(iGx):  (4.34897279924365276E-002,-1.89341192673532987E-004)   1.0000000000000000     
     Electronic Dipole per cell (Ry a.u.)  -3.6926760733276442E-002
     Ionic Dipole per cell (Ry a.u.)   3304.1298547372130     

     Expectation value of exp(iGx):  (1.53845427718774467E-002,-5.98969051104400829E-008)  0.86602540378443849     
     Electronic Dipole per cell (Ry a.u.)  -2.8598019652820959E-005
     Ionic Dipole per cell (Ry a.u.)   4246.0379116170097     

     Expectation value of exp(iGx):   (7.36719863038467759E-002,5.57469223289322208E-003)   1.0989361747729789     
     Electronic Dipole per cell (Ry a.u.)  0.70396274978649642     
     Ionic Dipole per cell (Ry a.u.)   5622.2366695215997     
Electronic Dipole on Cartesian axes
           1  -3.6926760733276442E-002
           2  -2.8598019652820959E-005
           3  0.70396274978649642     
Ionic Dipole on Cartesian axes
           1   3304.1298547372130     
           2   4246.0379116170097     
           3   5622.2366695215997     

     total cpu time spent up to now is     2696.1 secs

     total energy              =   -1803.48998314 Ry
     estimated scf accuracy    <       0.00072980 Ry

     iteration #  7     ecut=   100.00 Ry     beta= 0.70
     Davidson diagonalization with overlap
     ethr =  1.90E-07,  avg # of iterations =  4.0

     Expectation value of exp(iGx):  (4.30737027070042522E-002,-1.89635209570327681E-004)   1.0000000000000000     
     Electronic Dipole per cell (Ry a.u.)  -3.7341305991126651E-002
     Ionic Dipole per cell (Ry a.u.)   3304.1298547372130     

     Expectation value of exp(iGx):  (1.51893199050783332E-002,-2.47482126796325240E-007)  0.86602540378443849     
     Electronic Dipole per cell (Ry a.u.)  -1.1968002784362468E-004
     Ionic Dipole per cell (Ry a.u.)   4246.0379116170097     

     Expectation value of exp(iGx):   (7.30735280918435454E-002,5.64020608355982576E-003)   1.0989361747729789     
     Electronic Dipole per cell (Ry a.u.)  0.71801360936830294     
     Ionic Dipole per cell (Ry a.u.)   5622.2366695215997     
Electronic Dipole on Cartesian axes
           1  -3.7341305991126651E-002
           2  -1.1968002784362468E-004
           3  0.71801360936830294     
Ionic Dipole on Cartesian axes
           1   3304.1298547372130     
           2   4246.0379116170097     
           3   5622.2366695215997     

     total cpu time spent up to now is     3139.6 secs

     total energy              =   -1803.49075654 Ry
     estimated scf accuracy    <       0.00066263 Ry

     iteration #  8     ecut=   100.00 Ry     beta= 0.70
     Davidson diagonalization with overlap
     ethr =  1.73E-07,  avg # of iterations =  1.0

     Expectation value of exp(iGx):  (4.31012845602128589E-002,-1.90296545731229503E-004)   1.0000000000000000     
     Electronic Dipole per cell (Ry a.u.)  -3.7447549943516206E-002
     Ionic Dipole per cell (Ry a.u.)   3304.1298547372130     

     Expectation value of exp(iGx):  (1.52023046845557088E-002,-1.54110299156484752E-007)  0.86602540378443849     
     Electronic Dipole per cell (Ry a.u.)  -7.4462635268193999E-005
     Ionic Dipole per cell (Ry a.u.)   4246.0379116170097     

     Expectation value of exp(iGx):   (7.31137864124647430E-002,5.63672568026182645E-003)   1.0989361747729789     
     Electronic Dipole per cell (Ry a.u.)  0.71717873798930376     
     Ionic Dipole per cell (Ry a.u.)   5622.2366695215997     
Electronic Dipole on Cartesian axes
           1  -3.7447549943516206E-002
           2  -7.4462635268193999E-005
           3  0.71717873798930376     
Ionic Dipole on Cartesian axes
           1   3304.1298547372130     
           2   4246.0379116170097     
           3   5622.2366695215997     

     total cpu time spent up to now is     3560.2 secs

     total energy              =   -1803.49055711 Ry
     estimated scf accuracy    <       0.00029321 Ry

     iteration #  9     ecut=   100.00 Ry     beta= 0.70
     Davidson diagonalization with overlap
     ethr =  7.64E-08,  avg # of iterations =  3.0

     Expectation value of exp(iGx):  (4.32642959388054790E-002,-1.90539705293252877E-004)   1.0000000000000000     
     Electronic Dipole per cell (Ry a.u.)  -3.7354126052793798E-002
     Ionic Dipole per cell (Ry a.u.)   3304.1298547372130     

     Expectation value of exp(iGx):  (1.52787731035787140E-002,-1.25057621708972488E-007)  0.86602540378443849     
     Electronic Dipole per cell (Ry a.u.)  -6.0122614026108677E-005
     Ionic Dipole per cell (Ry a.u.)   4246.0379116170097     

     Expectation value of exp(iGx):   (7.33478149249535416E-002,5.62894368429513701E-003)   1.0989361747729789     
     Electronic Dipole per cell (Ry a.u.)  0.71391631329180638     
     Ionic Dipole per cell (Ry a.u.)   5622.2366695215997     
Electronic Dipole on Cartesian axes
           1  -3.7354126052793798E-002
           2  -6.0122614026108684E-005
           3  0.71391631329180638     
Ionic Dipole on Cartesian axes
           1   3304.1298547372130     
           2   4246.0379116170097     
           3   5622.2366695215997     

     total cpu time spent up to now is     4041.8 secs

     total energy              =   -1803.49067662 Ry
     estimated scf accuracy    <       0.00010587 Ry

     iteration # 10     ecut=   100.00 Ry     beta= 0.70
     Davidson diagonalization with overlap
     ethr =  2.76E-08,  avg # of iterations =  1.0

     Expectation value of exp(iGx):  (4.32436286223902497E-002,-1.90313907764678048E-004)   1.0000000000000000     
     Electronic Dipole per cell (Ry a.u.)  -3.7327691596411673E-002
     Ionic Dipole per cell (Ry a.u.)   3304.1298547372130     

     Expectation value of exp(iGx):  (1.52690318122643866E-002,-1.22315800162660459E-007)  0.86602540378443849     
     Electronic Dipole per cell (Ry a.u.)  -5.8841973725392900E-005
     Ionic Dipole per cell (Ry a.u.)   4246.0379116170097     

     Expectation value of exp(iGx):   (7.33180099042557015E-002,5.62758120918134628E-003)   1.0989361747729789     
     Electronic Dipole per cell (Ry a.u.)  0.71403320159140382     
     Ionic Dipole per cell (Ry a.u.)   5622.2366695215997     
Electronic Dipole on Cartesian axes
           1  -3.7327691596411673E-002
           2  -5.8841973725392893E-005
           3  0.71403320159140382     
Ionic Dipole on Cartesian axes
           1   3304.1298547372130     
           2   4246.0379116170097     
           3   5622.2366695215997     

     total cpu time spent up to now is     4453.4 secs

     total energy              =   -1803.49067847 Ry
     estimated scf accuracy    <       0.00002005 Ry

     iteration # 11     ecut=   100.00 Ry     beta= 0.70
     Davidson diagonalization with overlap
     ethr =  5.22E-09,  avg # of iterations =  2.0

     Expectation value of exp(iGx):  (4.32209318049344010E-002,-1.90238240694351728E-004)   1.0000000000000000     
     Electronic Dipole per cell (Ry a.u.)  -3.7332444664059772E-002
     Ionic Dipole per cell (Ry a.u.)   3304.1298547372130     

     Expectation value of exp(iGx):  (1.52583760217416178E-002,-1.43883655833154219E-007)  0.86602540378443849     
     Electronic Dipole per cell (Ry a.u.)  -6.9265874494228965E-005
     Ionic Dipole per cell (Ry a.u.)   4246.0379116170097     

     Expectation value of exp(iGx):   (7.32854367367754556E-002,5.63045926534926251E-003)   1.0989361747729789     
     Electronic Dipole per cell (Ry a.u.)  0.71471322922891845     
     Ionic Dipole per cell (Ry a.u.)   5622.2366695215997     
Electronic Dipole on Cartesian axes
           1  -3.7332444664059772E-002
           2  -6.9265874494228965E-005
           3  0.71471322922891845     
Ionic Dipole on Cartesian axes
           1   3304.1298547372130     
           2   4246.0379116170097     
           3   5622.2366695215997     

     total cpu time spent up to now is     4890.2 secs

     total energy              =   -1803.49068263 Ry
     estimated scf accuracy    <       0.00000080 Ry

     iteration # 12     ecut=   100.00 Ry     beta= 0.70
     Davidson diagonalization with overlap
     ethr =  2.09E-10,  avg # of iterations =  3.2

     Expectation value of exp(iGx):  (4.32124697435305252E-002,-1.90197223436613472E-004)   1.0000000000000000     
     Electronic Dipole per cell (Ry a.u.)  -3.7331704459098176E-002
     Ionic Dipole per cell (Ry a.u.)   3304.1298547372130     

     Expectation value of exp(iGx):  (1.52544139966025640E-002,-1.31807654256421861E-007)  0.86602540378443849     
     Electronic Dipole per cell (Ry a.u.)  -6.3468944111712091E-005
     Ionic Dipole per cell (Ry a.u.)   4246.0379116170097     

     Expectation value of exp(iGx):   (7.32732271461902923E-002,5.63109410528041948E-003)   1.0989361747729789     
     Electronic Dipole per cell (Ry a.u.)  0.71491213852230417     
     Ionic Dipole per cell (Ry a.u.)   5622.2366695215997     
Electronic Dipole on Cartesian axes
           1  -3.7331704459098176E-002
           2  -6.3468944111712091E-005
           3  0.71491213852230417     
Ionic Dipole on Cartesian axes
           1   3304.1298547372130     
           2   4246.0379116170097     
           3   5622.2366695215997     

     total cpu time spent up to now is     5327.5 secs

     total energy              =   -1803.49068255 Ry
     estimated scf accuracy    <       0.00000002 Ry

     iteration # 13     ecut=   100.00 Ry     beta= 0.70
     Davidson diagonalization with overlap
     ethr =  6.31E-12,  avg # of iterations =  3.1

     Expectation value of exp(iGx):  (4.32125735907254796E-002,-1.90232546744145106E-004)   1.0000000000000000     
     Electronic Dipole per cell (Ry a.u.)  -3.7338547860007752E-002
     Ionic Dipole per cell (Ry a.u.)   3304.1298547372130     

     Expectation value of exp(iGx):  (1.52544647983750403E-002,-1.38524417164258781E-007)  0.86602540378443849     
     Electronic Dipole per cell (Ry a.u.)  -6.6703024652006973E-005
     Ionic Dipole per cell (Ry a.u.)   4246.0379116170097     

     Expectation value of exp(iGx):   (7.32733607015326333E-002,5.63119194341119792E-003)   1.0989361747729789     
     Electronic Dipole per cell (Ry a.u.)  0.71492321320300589     
     Ionic Dipole per cell (Ry a.u.)   5622.2366695215997     
Electronic Dipole on Cartesian axes
           1  -3.7338547860007752E-002
           2  -6.6703024652006973E-005
           3  0.71492321320300589     
Ionic Dipole on Cartesian axes
           1   3304.1298547372130     
           2   4246.0379116170097     
           3   5622.2366695215997     

     total cpu time spent up to now is     5809.9 secs

     total energy              =   -1803.49068237 Ry
     estimated scf accuracy    <          4.7E-10 Ry

     iteration # 14     ecut=   100.00 Ry     beta= 0.70
     Davidson diagonalization with overlap
     ethr =  1.22E-13,  avg # of iterations =  5.0

     Expectation value of exp(iGx):  (4.32126391329476847E-002,-1.90221542061084245E-004)   1.0000000000000000     
     Electronic Dipole per cell (Ry a.u.)  -3.7336331277106387E-002
     Ionic Dipole per cell (Ry a.u.)   3304.1298547372130     

     Expectation value of exp(iGx):  (1.52544975131442186E-002,-1.31305568732176172E-007)  0.86602540378443849     
     Electronic Dipole per cell (Ry a.u.)  -6.3226830215130049E-005
     Ionic Dipole per cell (Ry a.u.)   4246.0379116170097     

     Expectation value of exp(iGx):   (7.32734452317365392E-002,5.63127785367195915E-003)   1.0989361747729789     
     Electronic Dipole per cell (Ry a.u.)  0.71493325590847656     
     Ionic Dipole per cell (Ry a.u.)   5622.2366695215997     
Electronic Dipole on Cartesian axes
           1  -3.7336331277106387E-002
           2  -6.3226830215130049E-005
           3  0.71493325590847656     
Ionic Dipole on Cartesian axes
           1   3304.1298547372130     
           2   4246.0379116170097     
           3   5622.2366695215997     

     total cpu time spent up to now is     6245.8 secs

     total energy              =   -1803.49068237 Ry
     estimated scf accuracy    <          2.3E-11 Ry

     iteration # 15     ecut=   100.00 Ry     beta= 0.70
     Davidson diagonalization with overlap
     ethr =  1.00E-13,  avg # of iterations =  1.0

     Expectation value of exp(iGx):  (4.32126447314108361E-002,-1.90227619097305166E-004)   1.0000000000000000     
     Electronic Dipole per cell (Ry a.u.)  -3.7337519213846447E-002
     Ionic Dipole per cell (Ry a.u.)   3304.1298547372130     

     Expectation value of exp(iGx):  (1.52545001716200574E-002,-1.34448322637688692E-007)  0.86602540378443849     
     Electronic Dipole per cell (Ry a.u.)  -6.4740131501851841E-005
     Ionic Dipole per cell (Ry a.u.)   4246.0379116170097     

     Expectation value of exp(iGx):   (7.32734536693550043E-002,5.63127501430981964E-003)   1.0989361747729789     
     Electronic Dipole per cell (Ry a.u.)  0.71493281483842663     
     Ionic Dipole per cell (Ry a.u.)   5622.2366695215997     
Electronic Dipole on Cartesian axes
           1  -3.7337519213846447E-002
           2  -6.4740131501851841E-005
           3  0.71493281483842663     
Ionic Dipole on Cartesian axes
           1   3304.1298547372130     
           2   4246.0379116170097     
           3   5622.2366695215997     

     total cpu time spent up to now is     6670.2 secs

     total energy              =   -1803.49068236 Ry
     estimated scf accuracy    <          1.0E-11 Ry

     iteration # 16     ecut=   100.00 Ry     beta= 0.70
     Davidson diagonalization with overlap
     ethr =  1.00E-13,  avg # of iterations =  1.0

     Expectation value of exp(iGx):  (4.32126213290104089E-002,-1.90230757212388061E-004)   1.0000000000000000     
     Electronic Dipole per cell (Ry a.u.)  -3.7338155369942762E-002
     Ionic Dipole per cell (Ry a.u.)   3304.1298547372130     

     Expectation value of exp(iGx):  (1.52544885962619080E-002,-1.35497301413326342E-007)  0.86602540378443849     
     Electronic Dipole per cell (Ry a.u.)  -6.5245289758688956E-005
     Ionic Dipole per cell (Ry a.u.)   4246.0379116170097     

     Expectation value of exp(iGx):   (7.32734196779167707E-002,5.63127312393121773E-003)   1.0989361747729789     
     Electronic Dipole per cell (Ry a.u.)  0.71493290613777261     
     Ionic Dipole per cell (Ry a.u.)   5622.2366695215997     
Electronic Dipole on Cartesian axes
           1  -3.7338155369942762E-002
           2  -6.5245289758688956E-005
           3  0.71493290613777261     
Ionic Dipole on Cartesian axes
           1   3304.1298547372130     
           2   4246.0379116170097     
           3   5622.2366695215997     

     total cpu time spent up to now is     7091.3 secs

     total energy              =   -1803.49068236 Ry
     estimated scf accuracy    <          3.8E-12 Ry

     iteration # 17     ecut=   100.00 Ry     beta= 0.70
     Davidson diagonalization with overlap
     ethr =  1.00E-13,  avg # of iterations =  1.0

     Expectation value of exp(iGx):  (4.32126207191452089E-002,-1.90229800030516645E-004)   1.0000000000000000     
     Electronic Dipole per cell (Ry a.u.)  -3.7337968025359873E-002
     Ionic Dipole per cell (Ry a.u.)   3304.1298547372130     

     Expectation value of exp(iGx):  (1.52544882962534680E-002,-1.35251800452399041E-007)  0.86602540378443849     
     Electronic Dipole per cell (Ry a.u.)  -6.5127076276852417E-005
     Ionic Dipole per cell (Ry a.u.)   4246.0379116170097     

     Expectation value of exp(iGx):   (7.32734186797994735E-002,5.63127527810885695E-003)   1.0989361747729789     
     Electronic Dipole per cell (Ry a.u.)  0.71493318825612606     
     Ionic Dipole per cell (Ry a.u.)   5622.2366695215997     
Electronic Dipole on Cartesian axes
           1  -3.7337968025359873E-002
           2  -6.5127076276852417E-005
           3  0.71493318825612606     
Ionic Dipole on Cartesian axes
           1   3304.1298547372130     
           2   4246.0379116170097     
           3   5622.2366695215997     

     total cpu time spent up to now is     7552.5 secs

     total energy              =   -1803.49068236 Ry
     estimated scf accuracy    <          2.1E-12 Ry

     iteration # 18     ecut=   100.00 Ry     beta= 0.70
     Davidson diagonalization with overlap
     ethr =  1.00E-13,  avg # of iterations =  1.0

     Expectation value of exp(iGx):  (4.32126253057441845E-002,-1.90228241330424634E-004)   1.0000000000000000     
     Electronic Dipole per cell (Ry a.u.)  -3.7337658127442892E-002
     Ionic Dipole per cell (Ry a.u.)   3304.1298547372130     

     Expectation value of exp(iGx):  (1.52544906045499005E-002,-1.34889936845203348E-007)  0.86602540378443849     
     Electronic Dipole per cell (Ry a.u.)  -6.4952820200376405E-005
     Ionic Dipole per cell (Ry a.u.)   4246.0379116170097     

     Expectation value of exp(iGx):   (7.32734252846245354E-002,5.63127779637941518E-003)   1.0989361747729789     
     Electronic Dipole per cell (Ry a.u.)  0.71493344252597957     
     Ionic Dipole per cell (Ry a.u.)   5622.2366695215997     
Electronic Dipole on Cartesian axes
           1  -3.7337658127442892E-002
           2  -6.4952820200376405E-005
           3  0.71493344252597957     
Ionic Dipole on Cartesian axes
           1   3304.1298547372130     
           2   4246.0379116170097     
           3   5622.2366695215997     

     total cpu time spent up to now is     7969.8 secs

     End of self-consistent calculation

          k = 0.0000 0.0000 0.0000 (107453 PWs)   bands (ev):

   -17.0402 -16.5966 -16.5966 -16.5843 -16.5843 -16.5760 -16.5183 -16.5104
   -16.5104 -16.1228 -16.1228 -16.1212 -16.0969 -16.0969 -16.0936 -15.6454
   -15.6100 -15.6100 -15.5792 -15.5792 -15.5639 -15.5639 -15.5387 -15.0297
   -15.0226 -15.0226 -15.0110 -15.0080 -15.0080 -14.9808 -14.9799 -14.9799
   -14.9779 -14.9779 -14.9719 -14.9719 -14.9705 -14.9650 -14.9649 -14.9640
   -14.9589 -14.9589 -14.9573 -14.9562 -14.9562 -14.9359 -14.9359 -14.9203
    -7.1464  -6.2287  -6.2287  -6.1980  -6.0568  -6.0568  -6.0440  -6.0379
    -6.0379  -5.1819  -5.0894  -5.0506  -5.0506  -5.0308  -5.0308  -4.3275
    -4.3275  -4.2210  -4.0481  -4.0481  -3.9633  -3.9633  -3.6954  -3.3997
    -3.3997  -3.2487  -3.2378  -3.1924  -3.1837  -3.1837  -3.1785  -3.0989
    -3.0989  -3.0937  -3.0091  -3.0091  -3.0033  -3.0033  -2.9299  -2.9299
    -2.8540  -2.7236  -2.7199  -2.7199  -2.4257  -2.4147  -2.4147  -2.4142
    -0.9775  -0.9775  -0.9452  -0.9227  -0.8175  -0.7990  -0.7990  -0.7630
    -0.7630  -0.6769  -0.6510  -0.6510  -0.6261  -0.6261  -0.4859  -0.4779
    -0.4779  -0.4579  -0.4579  -0.3985  -0.3525  -0.3457  -0.3457  -0.2294
    -0.2099  -0.0442   0.0321   0.0321   0.0569   0.0569   0.0990   0.0990
     0.1114   0.1188   0.1241   0.2021   0.2021   0.2552   0.2552   0.3487
     0.3487   0.3643   0.3643   0.4744   0.4819   0.4860   0.4860   0.6415
     0.6660   0.6816   0.6816   0.6903   0.7060   0.7060   0.8187   0.8187
     0.9187   0.9952   1.0221   1.0221   1.0258   1.0804   1.1146   1.1146
     1.1261   1.1261   1.1442   1.1922   1.1922   1.2463   1.2463   1.3051
     1.3613   1.3825   1.4572   1.4572   1.5287   1.5287   1.5651   1.5658
     1.6426   1.6426   1.7734   1.7734   1.8387   1.8387   1.8634   1.8634
     1.8946   1.9605   1.9836   1.9836   2.0540   2.1285   2.1315   2.1315

          k = 0.0000 0.0000 0.4550 (107410 PWs)   bands (ev):

   -16.9246 -16.9246 -16.5504 -16.5504 -16.5497 -16.5497 -16.5484 -16.5484
   -16.1143 -16.1143 -16.1077 -16.1076 -16.1076 -16.1076 -16.1055 -16.1055
   -15.5918 -15.5918 -15.5890 -15.5890 -15.5865 -15.5865 -15.1397 -15.1396
   -15.0136 -15.0136 -15.0093 -15.0093 -15.0073 -15.0073 -14.9957 -14.9957
   -14.9930 -14.9930 -14.9839 -14.9839 -14.9625 -14.9625 -14.9585 -14.9585
   -14.9579 -14.9579 -14.9550 -14.9550 -14.9472 -14.9472 -14.9251 -14.9250
    -6.8475  -6.8475  -6.1403  -6.1403  -6.1398  -6.1398  -6.1249  -6.1248
    -5.1363  -5.1362  -5.0346  -5.0346  -5.0331  -5.0331  -5.0218  -5.0218
    -4.1646  -4.1646  -4.1640  -4.1640  -4.0071  -4.0071  -3.4178  -3.4178
    -3.3051  -3.3051  -3.2961  -3.2961  -3.2151  -3.2150  -3.1781  -3.1781
    -3.1756  -3.1756  -2.8999  -2.8998  -2.8830  -2.8830  -2.8815  -2.8815
    -2.6267  -2.6267  -2.5994  -2.5994  -2.5988  -2.5988  -2.5958  -2.5957
    -0.9219  -0.9219  -0.9215  -0.9215  -0.8866  -0.8866  -0.8188  -0.8187
    -0.7251  -0.7251  -0.6566  -0.6566  -0.6562  -0.6562  -0.4298  -0.4298
    -0.4236  -0.4236  -0.4231  -0.4231  -0.4020  -0.4020  -0.2732  -0.2732
    -0.0691  -0.0690  -0.0586  -0.0586   0.0150   0.0150   0.0153   0.0153
     0.2394   0.2394   0.2400   0.2400   0.2574   0.2574   0.4114   0.4115
     0.4348   0.4348   0.4368   0.4368   0.4617   0.4617   0.5764   0.5764
     0.6699   0.6699   0.6969   0.6969   0.7384   0.7384   0.7771   0.7771
     0.7780   0.7780   0.9734   0.9734   0.9761   0.9761   1.0232   1.0232
     1.1296   1.1296   1.2087   1.2087   1.2088   1.2088   1.2097   1.2097
     1.4466   1.4466   1.4867   1.4867   1.4869   1.4869   1.7030   1.7031
     1.7340   1.7340   1.7345   1.7345   1.7348   1.7348   1.9182   1.9183
     2.0083   2.0083   2.0084   2.0084   2.0406   2.0406   2.0714   2.0714

          k = 0.0000 0.5774 0.0000 (107384 PWs)   bands (ev):

   -16.8715 -16.8715 -16.5760 -16.5760 -16.5585 -16.5585 -16.5183 -16.5183
   -16.4189 -16.4189 -16.1212 -16.1212 -16.0936 -16.0936 -15.7799 -15.7799
   -15.6454 -15.6454 -15.5597 -15.5597 -15.5387 -15.5387 -15.2295 -15.2294
   -15.0297 -15.0297 -15.0110 -15.0110 -14.9966 -14.9966 -14.9955 -14.9955
   -14.9808 -14.9808 -14.9705 -14.9705 -14.9640 -14.9640 -14.9617 -14.9617
   -14.9595 -14.9595 -14.9573 -14.9573 -14.9456 -14.9456 -14.9434 -14.9434
    -6.7120  -6.7119  -6.1980  -6.1980  -6.1296  -6.1296  -6.0440  -6.0440
    -5.6778  -5.6778  -5.1819  -5.1819  -5.0894  -5.0894  -4.4854  -4.4854
    -4.2210  -4.2210  -4.1595  -4.1595  -3.6954  -3.6954  -3.3254  -3.3254
    -3.2487  -3.2487  -3.2407  -3.2407  -3.2155  -3.2155  -3.1924  -3.1924
    -3.1835  -3.1835  -3.1089  -3.1089  -3.0937  -3.0937  -2.8540  -2.8540
    -2.7236  -2.7236  -2.7120  -2.7120  -2.5558  -2.5558  -2.4142  -2.4142
    -0.9452  -0.9452  -0.9227  -0.9227  -0.8509  -0.8509  -0.8175  -0.8175
    -0.7615  -0.7615  -0.7381  -0.7381  -0.6769  -0.6769  -0.5483  -0.5483
    -0.4234  -0.4234  -0.3985  -0.3985  -0.2105  -0.2105  -0.2099  -0.2099
    -0.0442  -0.0441  -0.0232  -0.0232   0.0396   0.0396   0.1114   0.1114
     0.1154   0.1154   0.1188   0.1188   0.1241   0.1241   0.1806   0.1806
     0.4744   0.4744   0.4819   0.4819   0.5808   0.5808   0.5973   0.5973
     0.6660   0.6660   0.6675   0.6675   0.7114   0.7114   0.8669   0.8669
     0.9187   0.9187   1.0258   1.0258   1.0804   1.0804   1.1008   1.1008
     1.1172   1.1172   1.1442   1.1442   1.1846   1.1846   1.3050   1.3051
     1.3613   1.3613   1.3766   1.3766   1.3825   1.3825   1.5651   1.5651
     1.7369   1.7369   1.7787   1.7787   1.8946   1.8946   1.9214   1.9214
     1.9605   1.9605   2.0083   2.0083   2.0109   2.0109   2.1285   2.1285

          k = 0.0000 0.5774 0.4550 (107468 PWs)   bands (ev):

   -16.7748 -16.7748 -16.7729 -16.7729 -16.5484 -16.5484 -16.5484 -16.5483
   -16.1077 -16.1077 -16.1077 -16.1076 -16.0977 -16.0977 -16.0893 -16.0893
   -15.5918 -15.5918 -15.5918 -15.5918 -15.3524 -15.3524 -15.3330 -15.3330
   -15.0136 -15.0136 -15.0136 -15.0136 -14.9898 -14.9898 -14.9866 -14.9866
   -14.9839 -14.9839 -14.9839 -14.9839 -14.9746 -14.9746 -14.9579 -14.9579
   -14.9579 -14.9579 -14.9560 -14.9560 -14.9509 -14.9509 -14.9422 -14.9422
    -6.5161  -6.5161  -6.5140  -6.5140  -6.1249  -6.1249  -6.1248  -6.1248
    -5.1363  -5.1362  -5.1362  -5.1362  -5.0858  -5.0858  -5.0852  -5.0852
    -4.0071  -4.0071  -4.0071  -4.0071  -3.7459  -3.7459  -3.7444  -3.7444
    -3.2592  -3.2591  -3.2425  -3.2425  -3.2151  -3.2151  -3.2150  -3.2150
    -2.9574  -2.9574  -2.9402  -2.9402  -2.8999  -2.8999  -2.8998  -2.8998
    -2.7357  -2.7357  -2.6839  -2.6839  -2.5958  -2.5958  -2.5957  -2.5957
    -0.9069  -0.9069  -0.8866  -0.8866  -0.8866  -0.8866  -0.8691  -0.8691
    -0.8188  -0.8188  -0.8187  -0.8187  -0.4937  -0.4937  -0.4562  -0.4562
    -0.3636  -0.3636  -0.3210  -0.3210  -0.2732  -0.2732  -0.2732  -0.2732
    -0.1688  -0.1688  -0.0691  -0.0691  -0.0690  -0.0690  -0.0504  -0.0504
     0.1628   0.1628   0.2174   0.2174   0.2574   0.2574   0.2574   0.2574
     0.4617   0.4617   0.4617   0.4617   0.5662   0.5662   0.6642   0.6642
     0.6727   0.6727   0.7332   0.7332   0.7384   0.7384   0.7384   0.7384
     0.8776   0.8776   0.8999   0.8999   1.0232   1.0232   1.0232   1.0232
     1.2097   1.2097   1.2097   1.2097   1.2728   1.2728   1.3337   1.3337
     1.3950   1.3950   1.4466   1.4466   1.4466   1.4466   1.4795   1.4795
     1.7348   1.7348   1.7348   1.7348   1.7697   1.7697   1.8433   1.8433
     2.0406   2.0406   2.0406   2.0406   2.0578   2.0578   2.1274   2.1274

          k = 0.5000 0.0000 0.0000 (107420 PWs)   bands (ev):

   -16.9117 -16.9116 -16.5658 -16.5657 -16.4991 -16.4990 -16.4624 -16.4623
   -16.4414 -16.4412 -16.2458 -16.2457 -15.9729 -15.9728 -15.7759 -15.7759
   -15.7297 -15.7297 -15.5680 -15.5680 -15.5663 -15.5662 -15.1663 -15.1662
   -15.0302 -15.0301 -15.0087 -15.0087 -14.9914 -14.9914 -14.9883 -14.9883
   -14.9825 -14.9824 -14.9778 -14.9776 -14.9767 -14.9766 -14.9670 -14.9669
   -14.9591 -14.9590 -14.9571 -14.9570 -14.9424 -14.9422 -14.9407 -14.9406
    -6.8112  -6.8111  -6.2512  -6.2511  -6.1188  -6.1186  -5.7569  -5.7568
    -5.7269  -5.7267  -5.3128  -5.3128  -4.7671  -4.7670  -4.3811  -4.3810
    -4.3622  -4.3622  -4.2451  -4.2451  -4.1600  -4.1599  -3.3198  -3.3197
    -3.2250  -3.2250  -3.2110  -3.2109  -3.1948  -3.1947  -3.1478  -3.1477
    -3.1362  -3.1361  -3.1127  -3.1126  -2.9641  -2.9640  -2.8945  -2.8944
    -2.7750  -2.7750  -2.7602  -2.7601  -2.5264  -2.5264  -2.3412  -2.3411
    -1.0094  -1.0094  -0.8182  -0.8181  -0.7356  -0.7356  -0.7236  -0.7235
    -0.6971  -0.6970  -0.6751  -0.6750  -0.6725  -0.6724  -0.6018  -0.6017
    -0.5410  -0.5410  -0.4566  -0.4566  -0.4014  -0.4013  -0.2379  -0.2378
    -0.0405  -0.0404  -0.0053  -0.0053   0.1066   0.1066   0.1503   0.1503
     0.1594   0.1595   0.2021   0.2022   0.2312   0.2312   0.2719   0.2720
     0.3061   0.3061   0.3855   0.3856   0.5345   0.5345   0.5802   0.5803
     0.5905   0.5906   0.6301   0.6302   0.7100   0.7101   0.8414   0.8415
     0.9015   0.9016   1.0186   1.0186   1.0670   1.0671   1.0908   1.0909
     1.1756   1.1757   1.1793   1.1793   1.2319   1.2320   1.2952   1.2953
     1.3855   1.3856   1.3886   1.3887   1.5486   1.5487   1.6424   1.6425
     1.7012   1.7014   1.7625   1.7626   1.8046   1.8047   1.8793   1.8794
     1.9142   1.9143   1.9807   1.9808   1.9926   1.9928   2.1510   2.1510

          k = 0.5000 0.0000 0.4550 (107560 PWs)   bands (ev):

   -16.8089 -16.8089 -16.8088 -16.8087 -16.4785 -16.4785 -16.4773 -16.4773
   -16.1308 -16.1308 -16.1275 -16.1275 -16.0969 -16.0969 -16.0967 -16.0967
   -15.6453 -15.6453 -15.6419 -15.6419 -15.2968 -15.2968 -15.2963 -15.2963
   -15.0123 -15.0123 -15.0104 -15.0104 -15.0029 -15.0029 -14.9996 -14.9996
   -14.9835 -14.9835 -14.9821 -14.9821 -14.9649 -14.9649 -14.9647 -14.9647
   -14.9615 -14.9615 -14.9576 -14.9576 -14.9412 -14.9412 -14.9401 -14.9401
    -6.5877  -6.5877  -6.5876  -6.5875  -6.0612  -6.0612  -6.0605  -6.0605
    -5.0710  -5.0710  -5.0708  -5.0708  -4.9579  -4.9579  -4.9555  -4.9555
    -4.3234  -4.3234  -4.3220  -4.3220  -3.7028  -3.7028  -3.7026  -3.7026
    -3.2547  -3.2547  -3.2538  -3.2538  -3.1671  -3.1671  -3.1643  -3.1643
    -2.9974  -2.9974  -2.9970  -2.9970  -2.8895  -2.8895  -2.8879  -2.8879
    -2.6983  -2.6983  -2.6981  -2.6981  -2.5528  -2.5528  -2.5521  -2.5521
    -0.9212  -0.9212  -0.9205  -0.9205  -0.8640  -0.8640  -0.8639  -0.8639
    -0.6625  -0.6625  -0.6616  -0.6616  -0.4804  -0.4804  -0.4794  -0.4794
    -0.4523  -0.4523  -0.4518  -0.4518  -0.3496  -0.3495  -0.3495  -0.3494
    -0.0906  -0.0906  -0.0897  -0.0897   0.1291   0.1291   0.1300   0.1300
     0.1903   0.1903   0.1906   0.1906   0.2419   0.2419   0.2420   0.2420
     0.3333   0.3333   0.3345   0.3345   0.6294   0.6294   0.6308   0.6308
     0.6904   0.6904   0.6906   0.6906   0.8204   0.8204   0.8205   0.8205
     0.8505   0.8505   0.8509   0.8509   0.9231   0.9231   0.9247   0.9247
     1.1846   1.1846   1.1856   1.1856   1.2755   1.2755   1.2757   1.2757
     1.4935   1.4935   1.4941   1.4941   1.5700   1.5700   1.5706   1.5706
     1.6911   1.6911   1.6918   1.6918   1.8173   1.8173   1.8175   1.8175
     1.9780   1.9780   1.9784   1.9784   2.1010   2.1010   2.1010   2.1011

          k = 0.5000 0.5774 0.0000 (107556 PWs)   bands (ev):

   -16.7564 -16.7563 -16.7562 -16.7562 -16.5363 -16.5362 -16.5362 -16.5361
   -16.2992 -16.2992 -16.2992 -16.2992 -15.9112 -15.9112 -15.9111 -15.9111
   -15.5574 -15.5574 -15.5574 -15.5574 -15.3932 -15.3932 -15.3931 -15.3931
   -15.0089 -15.0088 -15.0087 -15.0087 -15.0043 -15.0043 -15.0042 -15.0042
   -14.9743 -14.9743 -14.9742 -14.9742 -14.9657 -14.9656 -14.9655 -14.9655
   -14.9580 -14.9579 -14.9578 -14.9577 -14.9505 -14.9504 -14.9504 -14.9503
    -6.4343  -6.4342  -6.4341  -6.4340  -6.1753  -6.1753  -6.1752  -6.1752
    -5.4268  -5.4268  -5.4267  -5.4267  -4.7087  -4.7087  -4.7087  -4.7086
    -4.2352  -4.2352  -4.2351  -4.2351  -3.5819  -3.5818  -3.5818  -3.5818
    -3.2208  -3.2208  -3.2207  -3.2206  -3.1339  -3.1339  -3.1337  -3.1337
    -3.1141  -3.1140  -3.1139  -3.1139  -3.0094  -3.0093  -3.0092  -3.0092
    -2.6329  -2.6329  -2.6328  -2.6328  -2.5724  -2.5724  -2.5723  -2.5723
    -0.8834  -0.8834  -0.8833  -0.8833  -0.8549  -0.8549  -0.8549  -0.8548
    -0.7912  -0.7912  -0.7912  -0.7912  -0.5835  -0.5834  -0.5833  -0.5833
    -0.3434  -0.3434  -0.3434  -0.3433  -0.1856  -0.1856  -0.1855  -0.1854
    -0.0813  -0.0812  -0.0810  -0.0809  -0.0289  -0.0288  -0.0284  -0.0283
     0.0898   0.0898   0.0900   0.0901   0.1861   0.1862   0.1863   0.1864
     0.4861   0.4862   0.4869   0.4870   0.6175   0.6175   0.6178   0.6178
     0.7032   0.7032   0.7046   0.7046   0.8132   0.8132   0.8135   0.8136
     0.9611   0.9612   0.9625   0.9626   0.9907   0.9907   0.9908   0.9908
     1.1756   1.1757   1.1757   1.1758   1.2309   1.2309   1.2321   1.2322
     1.3594   1.3594   1.3600   1.3601   1.5850   1.5851   1.5853   1.5854
     1.7245   1.7246   1.7251   1.7251   1.9131   1.9132   1.9132   1.9132
     1.9308   1.9309   1.9309   1.9311   2.0754   2.0754   2.0755   2.0755

          k = 0.5000 0.5774 0.4550 (107528 PWs)   bands (ev):

   -16.6782 -16.6782 -16.6780 -16.6780 -16.6762 -16.6762 -16.6760 -16.6760
   -16.0953 -16.0953 -16.0946 -16.0946 -16.0870 -16.0870 -16.0863 -16.0863
   -15.4676 -15.4676 -15.4665 -15.4665 -15.4538 -15.4538 -15.4526 -15.4526
   -15.0022 -15.0022 -15.0005 -15.0005 -14.9971 -14.9971 -14.9958 -14.9958
   -14.9822 -14.9822 -14.9813 -14.9813 -14.9782 -14.9782 -14.9762 -14.9762
   -14.9531 -14.9531 -14.9510 -14.9510 -14.9504 -14.9504 -14.9490 -14.9490
    -6.3328  -6.3328  -6.3326  -6.3326  -6.3311  -6.3311  -6.3309  -6.3309
    -5.0947  -5.0947  -5.0944  -5.0944  -5.0942  -5.0942  -5.0939  -5.0939
    -3.9099  -3.9099  -3.9098  -3.9098  -3.9097  -3.9096  -3.9095  -3.9095
    -3.2199  -3.2199  -3.2184  -3.2184  -3.2056  -3.2056  -3.2040  -3.2040
    -2.8905  -2.8905  -2.8897  -2.8896  -2.8841  -2.8841  -2.8832  -2.8832
    -2.7050  -2.7050  -2.7047  -2.7047  -2.6716  -2.6716  -2.6713  -2.6713
    -0.9342  -0.9342  -0.9341  -0.9341  -0.9060  -0.9060  -0.9058  -0.9058
    -0.5748  -0.5748  -0.5745  -0.5745  -0.5726  -0.5726  -0.5724  -0.5724
    -0.3535  -0.3535  -0.3532  -0.3532  -0.3287  -0.3287  -0.3284  -0.3284
    -0.1409  -0.1409  -0.1401  -0.1401  -0.0744  -0.0744  -0.0741  -0.0741
     0.1853   0.1853   0.1856   0.1856   0.2272   0.2272   0.2275   0.2275
     0.5371   0.5371   0.5386   0.5386   0.6083   0.6083   0.6099   0.6099
     0.6784   0.6784   0.6786   0.6786   0.7402   0.7402   0.7405   0.7405
     0.9834   0.9834   0.9844   0.9844   0.9885   0.9885   0.9896   0.9896
     1.2509   1.2509   1.2509   1.2509   1.3061   1.3061   1.3075   1.3075
     1.3765   1.3765   1.3779   1.3779   1.4210   1.4210   1.4215   1.4215
     1.7349   1.7349   1.7353   1.7353   1.8141   1.8141   1.8143   1.8143
     2.0348   2.0348   2.0349   2.0349   2.0893   2.0893   2.0894   2.0894

     highest occupied level (ev):     2.1510

!    total energy              =   -1803.49068236 Ry
     estimated scf accuracy    <          1.4E-13 Ry

     The total energy is the sum of the following terms:
     one-electron contribution =    -855.94565083 Ry
     hartree contribution      =     632.28055565 Ry
     xc contribution           =    -484.71663333 Ry
     ewald contribution        =   -1089.48600225 Ry

     convergence has been achieved in  18 iterations

     Forces acting on atoms (cartesian axes, Ry/au):

     atom    1 type  1   force =    -0.00028594   -0.00019725    0.00487703
     atom    2 type  1   force =     0.00033397   -0.00016500    0.00487981
     atom    3 type  1   force =     0.00000405    0.00036131    0.00489289
     atom    4 type  2   force =    -0.00042382   -0.00107468   -0.00244798
     atom    5 type  2   force =    -0.00073319    0.00092386   -0.00246378
     atom    6 type  2   force =     0.00112684    0.00016840   -0.00243695
     atom    7 type  2   force =     0.00042240   -0.00107009   -0.00242986
     atom    8 type  2   force =    -0.00114998    0.00016842   -0.00243666
     atom    9 type  2   force =     0.00071147    0.00089936   -0.00242801
     atom   10 type  1   force =    -0.00028723   -0.00020004    0.00488819
     atom   11 type  1   force =     0.00033550   -0.00016676    0.00490122
     atom   12 type  1   force =     0.00000435    0.00036347    0.00490217
     atom   13 type  2   force =    -0.00042561   -0.00107663   -0.00244951
     atom   14 type  2   force =    -0.00073890    0.00093228   -0.00247335
     atom   15 type  2   force =     0.00113905    0.00017025   -0.00244782
     atom   16 type  2   force =     0.00042650   -0.00108051   -0.00243980
     atom   17 type  2   force =    -0.00116002    0.00016929   -0.00244595
     atom   18 type  2   force =     0.00071125    0.00090046   -0.00242862
     atom   19 type  1   force =     0.00028618   -0.00015520    0.00488853
     atom   20 type  1   force =    -0.00001308    0.00033150    0.00489240
     atom   21 type  2   force =    -0.00070817    0.00089344   -0.00243589
     atom   22 type  2   force =     0.00042355   -0.00106836   -0.00242756
     atom   23 type  2   force =    -0.00114284    0.00016953   -0.00243300
     atom   24 type  2   force =     0.00071892    0.00090871   -0.00243715
     atom   25 type  1   force =     0.00028905   -0.00015789    0.00490951
     atom   26 type  1   force =    -0.00001232    0.00033622    0.00490393
     atom   27 type  2   force =    -0.00071616    0.00090497   -0.00244807
     atom   28 type  2   force =     0.00042835   -0.00107998   -0.00243859
     atom   29 type  2   force =    -0.00115107    0.00017009   -0.00244078
     atom   30 type  2   force =     0.00071860    0.00090946   -0.00243731
     atom   31 type  1   force =    -0.00029729   -0.00018444    0.00488844
     atom   32 type  1   force =     0.00028734   -0.00015017    0.00487724
     atom   33 type  1   force =    -0.00004315    0.00033831    0.00487355
     atom   34 type  2   force =    -0.00042773   -0.00108437   -0.00245650
     atom   35 type  2   force =    -0.00070689    0.00089084   -0.00243477
     atom   36 type  2   force =     0.00116162    0.00017176   -0.00246002
     atom   37 type  2   force =     0.00042719   -0.00107217   -0.00243135
     atom   38 type  2   force =    -0.00112941    0.00016822   -0.00242469
     atom   39 type  2   force =     0.00072511    0.00091511   -0.00244236
     atom   40 type  1   force =    -0.00029935   -0.00018572    0.00489962
     atom   41 type  1   force =     0.00029227   -0.00015132    0.00489926
     atom   42 type  1   force =    -0.00004195    0.00033826    0.00488580
     atom   43 type  2   force =    -0.00042806   -0.00108310   -0.00245555
     atom   44 type  2   force =    -0.00071286    0.00089942   -0.00244400
     atom   45 type  2   force =     0.00117262    0.00017322   -0.00247013
     atom   46 type  2   force =     0.00043100   -0.00108218   -0.00244140
     atom   47 type  2   force =    -0.00114317    0.00016933   -0.00243664
     atom   48 type  2   force =     0.00072435    0.00091552   -0.00244205
     atom   49 type  1   force =    -0.00025803   -0.00018908    0.00488326
     atom   50 type  1   force =     0.00033320   -0.00015542    0.00486727
     atom   51 type  1   force =    -0.00002746    0.00036030    0.00487547
     atom   52 type  2   force =    -0.00043951   -0.00110071   -0.00246750
     atom   53 type  2   force =    -0.00072900    0.00091462   -0.00245841
     atom   54 type  2   force =     0.00110381    0.00016740   -0.00242156
     atom   55 type  2   force =     0.00042570   -0.00107413   -0.00243326
     atom   56 type  2   force =    -0.00113730    0.00016632   -0.00242800
     atom   57 type  2   force =     0.00071951    0.00090671   -0.00243456
     atom   58 type  1   force =    -0.00026143   -0.00019003    0.00489242
     atom   59 type  1   force =     0.00033728   -0.00015727    0.00488800
     atom   60 type  1   force =    -0.00002733    0.00036154    0.00488458
     atom   61 type  2   force =    -0.00044010   -0.00110054   -0.00246769
     atom   62 type  2   force =    -0.00073480    0.00092304   -0.00246754
     atom   63 type  2   force =     0.00111481    0.00016889   -0.00243118
     atom   64 type  2   force =     0.00042932   -0.00108343   -0.00244213
     atom   65 type  2   force =    -0.00115024    0.00016756   -0.00243935
     atom   66 type  2   force =     0.00071906    0.00090727   -0.00243470
     atom   67 type  1   force =    -0.00032531   -0.00019132    0.00488575
     atom   68 type  2   force =    -0.00041530   -0.00106555   -0.00244137
     atom   69 type  2   force =     0.00118522    0.00017199   -0.00247517
     atom   70 type  1   force =    -0.00032418   -0.00019260    0.00489692
     atom   71 type  2   force =    -0.00041566   -0.00106433   -0.00244064
     atom   72 type  2   force =     0.00119444    0.00017362   -0.00248409

     Total force =     0.030463     Total SCF correction =     0.000000


     Computing stress (Cartesian axis) and pressure

          total   stress  (Ry/bohr**3)                   (kbar)     P=        6.79
   0.00004610   0.00000000  -0.00000000            6.78        0.00       -0.00
   0.00000000   0.00004611   0.00000000            0.00        6.78        0.00
  -0.00000000   0.00000000   0.00004622           -0.00        0.00        6.80


     BFGS Geometry Optimization
     Energy error            =      0.0E+00 Ry
     Gradient error          =      4.9E-03 Ry/Bohr

     number of scf cycles    =   1
     number of bfgs steps    =   0

     energy             new  =   -1803.4906823644 Ry

     new trust radius        =       0.0049205445 bohr
     new conv_thr            =            1.0E-12 Ry


ATOMIC_POSITIONS (angstrom)
Si           -1.1795528084        2.0426765418        4.5680239556
Si            1.3134213125        2.2745334373        2.7418468037
Si            2.3587934451        0.0001868848        0.9156781368
O            -1.0836956839        3.1864540144        0.2373839357
O             0.8087288941        3.6626841615        2.0635596371
O             0.2749510712        1.7856718081        3.8897470941
O             1.4094051691        1.1298137802        1.5862003030
O             2.7663918184        2.5318978689        3.4123746246
O             3.3021482186        0.6556732707        5.2385613147
Si           -1.1795522027        2.0426780547       10.0465580528
Si            1.3134228105        2.2745352113        8.2203865566
Si            2.3587926875        0.0001876162        6.3942142627
O            -1.0836945505        3.1864502734        5.7159130561
O             0.8087266358        3.6626879039        7.5420895478
O             0.2749567914        1.7856738039        9.3682786749
O             1.4094081728        1.1298123799        7.0647324675
O             2.7663902111        2.5319008512        8.8909047203
O             3.3021531640        0.6556738966       10.7170909596
Si           -1.1792365646        6.5919428456        2.7418488892
Si           -0.1338624109        4.3175833282        0.9156722708
O            -1.6839126142        7.9800817159        2.0635680319
O            -1.0832366224        5.4472242383        1.5861972792
O             0.2737490453        6.8493119220        3.4123729211
O             0.8094952868        4.9730813089        5.2385510833
Si           -1.1792380936        6.5919375592        8.2203886291
Si           -0.1338642636        4.3175832762        6.3942070394
O            -1.6839172238        7.9800806494        7.5420990212
O            -1.0832400753        5.4472164507        7.0647279561
O             0.2737459275        6.8493071601        8.8909004949
O             0.8095008834        4.9730789733       10.7170802609
Si            3.8057468347        2.0426748903        4.5680296807
Si            6.2987110949        2.2745364841        2.7418504553
Si            7.3440815955        0.0001840588        0.9156688527
O             3.9016052862        3.1864416463        0.2373902657
O             5.7940337518        3.6626744767        2.0635753252
O             5.2602637158        1.7856680403        3.8897453021
O             6.3947108851        1.1298155354        1.5862009416
O             7.7517012869        2.5319042139        3.4123763176
O             8.2874546007        0.6556817985        5.2385536948
Si            3.8057479238        2.0426768254       10.0465645205
Si            6.2987148416        2.2745372690        8.2203874327
Si            7.3440826734        0.0001814755        6.3942045279
O             3.9016088482        3.1864404041        5.7159175524
O             5.7940358802        3.6626767292        7.5420994628
O             5.2602693098        1.7856740147        9.3682754502
O             6.3947137537        1.1298100734        7.0647325829
O             7.7516999476        2.5319068094        8.8909031974
O             8.2874542323        0.6556834844       10.7170815115
Si            1.3131081150        6.3600809503        4.5680270786
Si            3.8060748111        6.5919356328        2.7418477177
Si            4.8514317390        4.3175850058        0.9156747244
O             1.4089581256        7.5038382436        0.2373807698
O             3.3013810508        7.9800827535        2.0635699752
O             2.7676010512        6.1030724774        3.8897576532
O             3.9020561390        5.4472123889        1.5862033359
O             5.2590529040        6.8492988269        3.4123723184
O             5.7948034144        4.9730748923        5.2385531930
Si            1.3131101294        6.3600776035       10.0465563020
Si            3.8060789054        6.5919339298        8.2203816235
Si            4.8514359350        4.3175847512        6.3942030545
O             1.4089545258        7.5038380761        5.7159174878
O             3.3013821670        7.9800859116        7.5420990552
O             2.7676053914        6.1030672872        9.3682795445
O             3.9020636180        5.4472116395        7.0647262864
O             5.2590504297        6.8492968355        8.8909014618
O             5.7948007846        4.9730761945       10.7170889122
Si            6.2983951827        6.3600736203        4.5680249104
O             6.3942638506        7.5038488852        0.2373876867
O             7.7529256602        6.1030745814        3.8897348527
Si            6.2983948743        6.3600722512       10.0465618202
O             6.3942656224        7.5038469879        5.7159169635
O             7.7529286802        6.1030708578        9.3682692179



     Writing config-only to output data dir /n/holyscratch01/kozinsky_lab/sfalletta/QE/SiO2/SiO2-sc222-relaxing-Ez-k222-1e-3/SiO2.save/
     NEW-OLD atomic charge density approx. for the potential

     total cpu time spent up to now is     8024.8 secs

     Self-consistent Calculation

     iteration #  1     ecut=   100.00 Ry     beta= 0.70
     Davidson diagonalization with overlap
     ethr =  1.00E-06,  avg # of iterations =  3.9

     Threshold (ethr) on eigenvalues was too large:
     Diagonalizing with lowered threshold

     Davidson diagonalization with overlap
     ethr =  4.68E-08,  avg # of iterations =  2.9

     Expectation value of exp(iGx):  (4.32132992680377831E-002,-1.90248047485953929E-004)   1.0000000000000000     
     Electronic Dipole per cell (Ry a.u.)  -3.7340963216052028E-002
     Ionic Dipole per cell (Ry a.u.)   3304.1298571441666     

     Expectation value of exp(iGx):  (1.52548106197703988E-002,-3.90083862999998511E-008)  0.86602540378443849     
     Electronic Dipole per cell (Ry a.u.)  -1.8783102794348770E-005
     Ionic Dipole per cell (Ry a.u.)   4246.0379077056505     

     Expectation value of exp(iGx):   (7.17897564378192493E-002,1.57220107810888687E-002)   1.0989361747729789     
     Electronic Dipole per cell (Ry a.u.)   2.0095587264789581     
     Ionic Dipole per cell (Ry a.u.)   5621.9048009689441     
Electronic Dipole on Cartesian axes
           1  -3.7340963216052028E-002
           2  -1.8783102794348770E-005
           3   2.0095587264789581     
Ionic Dipole on Cartesian axes
           1   3304.1298571441666     
           2   4246.0379077056505     
           3   5621.9048009689441     

     total cpu time spent up to now is     8523.5 secs

     total energy              =   -1803.49103686 Ry
     estimated scf accuracy    <       0.00023545 Ry

     iteration #  2     ecut=   100.00 Ry     beta= 0.70
     Davidson diagonalization with overlap
     ethr =  6.13E-08,  avg # of iterations =  2.0

     Expectation value of exp(iGx):  (4.32128957205247730E-002,-1.90251815266958874E-004)   1.0000000000000000     
     Electronic Dipole per cell (Ry a.u.)  -3.7342051442604468E-002
     Ionic Dipole per cell (Ry a.u.)   3304.1298571441666     

     Expectation value of exp(iGx):  (1.52546175635659177E-002,-9.22690000745949265E-008)  0.86602540378443849     
     Electronic Dipole per cell (Ry a.u.)  -4.4429421744545365E-005
     Ionic Dipole per cell (Ry a.u.)   4246.0379077056505     

     Expectation value of exp(iGx):   (7.18401195071987214E-002,1.54860684603620700E-002)   1.0989361747729789     
     Electronic Dipole per cell (Ry a.u.)   1.9789599714531139     
     Ionic Dipole per cell (Ry a.u.)   5621.9048009689441     
Electronic Dipole on Cartesian axes
           1  -3.7342051442604468E-002
           2  -4.4429421744545365E-005
           3   1.9789599714531139     
Ionic Dipole on Cartesian axes
           1   3304.1298571441666     
           2   4246.0379077056505     
           3   5621.9048009689441     

     total cpu time spent up to now is     8958.8 secs

     total energy              =   -1803.49096679 Ry
     estimated scf accuracy    <       0.00000406 Ry

     iteration #  3     ecut=   100.00 Ry     beta= 0.70
     Davidson diagonalization with overlap
     ethr =  1.06E-09,  avg # of iterations =  2.6

     Expectation value of exp(iGx):  (4.32130011164748862E-002,-1.90256566776103564E-004)   1.0000000000000000     
     Electronic Dipole per cell (Ry a.u.)  -3.7342892964533157E-002
     Ionic Dipole per cell (Ry a.u.)   3304.1298571441666     

     Expectation value of exp(iGx):  (1.52546669173726310E-002,-1.02054208439388768E-007)  0.86602540378443849     
     Electronic Dipole per cell (Ry a.u.)  -4.9141041890988775E-005
     Ionic Dipole per cell (Ry a.u.)   4246.0379077056505     

     Expectation value of exp(iGx):   (7.18482208415456847E-002,1.54488801325142790E-002)   1.0989361747729789     
     Electronic Dipole per cell (Ry a.u.)   1.9741327047530486     
     Ionic Dipole per cell (Ry a.u.)   5621.9048009689441     
Electronic Dipole on Cartesian axes
           1  -3.7342892964533157E-002
           2  -4.9141041890988775E-005
           3   1.9741327047530488     
Ionic Dipole on Cartesian axes
           1   3304.1298571441666     
           2   4246.0379077056505     
           3   5621.9048009689441     

     total cpu time spent up to now is     9428.6 secs

     total energy              =   -1803.49099348 Ry
     estimated scf accuracy    <       0.00000056 Ry

     iteration #  4     ecut=   100.00 Ry     beta= 0.70
     Davidson diagonalization with overlap
     ethr =  1.47E-10,  avg # of iterations =  2.8

     Expectation value of exp(iGx):  (4.32129382820845009E-002,-1.90258584856510668E-004)   1.0000000000000000     
     Electronic Dipole per cell (Ry a.u.)  -3.7343343360014075E-002
     Ionic Dipole per cell (Ry a.u.)   3304.1298571441666     

     Expectation value of exp(iGx):  (1.52546373343763995E-002,-6.37192802154927650E-008)  0.86602540378443849     
     Electronic Dipole per cell (Ry a.u.)  -3.0682104526371833E-005
     Ionic Dipole per cell (Ry a.u.)   4246.0379077056505     

     Expectation value of exp(iGx):   (7.18464096658231466E-002,1.54567892761595521E-002)   1.0989361747729789     
     Electronic Dipole per cell (Ry a.u.)   1.9751617104982877     
     Ionic Dipole per cell (Ry a.u.)   5621.9048009689441     
Electronic Dipole on Cartesian axes
           1  -3.7343343360014075E-002
           2  -3.0682104526371833E-005
           3   1.9751617104982875     
Ionic Dipole on Cartesian axes
           1   3304.1298571441666     
           2   4246.0379077056505     
           3   5621.9048009689441     

     total cpu time spent up to now is     9868.5 secs

     total energy              =   -1803.49099945 Ry
     estimated scf accuracy    <       0.00000011 Ry

     iteration #  5     ecut=   100.00 Ry     beta= 0.70
     Davidson diagonalization with overlap
     ethr =  2.90E-11,  avg # of iterations =  2.4

     Expectation value of exp(iGx):  (4.32129490253512563E-002,-1.90259331242319051E-004)   1.0000000000000000     
     Electronic Dipole per cell (Ry a.u.)  -3.7343480572400181E-002
     Ionic Dipole per cell (Ry a.u.)   3304.1298571441666     

     Expectation value of exp(iGx):  (1.52546425687999643E-002,-6.88894962850790779E-008)  0.86602540378443849     
     Electronic Dipole per cell (Ry a.u.)  -3.3171655319375497E-005
     Ionic Dipole per cell (Ry a.u.)   4246.0379077056505     

     Expectation value of exp(iGx):   (7.18469199291442012E-002,1.54544550435180717E-002)   1.0989361747729789     
     Electronic Dipole per cell (Ry a.u.)   1.9748586661382188     
     Ionic Dipole per cell (Ry a.u.)   5621.9048009689441     
Electronic Dipole on Cartesian axes
           1  -3.7343480572400181E-002
           2  -3.3171655319375497E-005
           3   1.9748586661382188     
Ionic Dipole on Cartesian axes
           1   3304.1298571441666     
           2   4246.0379077056505     
           3   5621.9048009689441     

     total cpu time spent up to now is    10307.6 secs

     total energy              =   -1803.49099815 Ry
     estimated scf accuracy    <          2.0E-09 Ry

     iteration #  6     ecut=   100.00 Ry     beta= 0.70
     Davidson diagonalization with overlap
     ethr =  5.30E-13,  avg # of iterations =  5.0

     Expectation value of exp(iGx):  (4.32129600771331557E-002,-1.90260799449940395E-004)   1.0000000000000000     
     Electronic Dipole per cell (Ry a.u.)  -3.7343759193072409E-002
     Ionic Dipole per cell (Ry a.u.)   3304.1298571441666     

     Expectation value of exp(iGx):  (1.52546476416768970E-002,-7.13382655699706358E-008)  0.86602540378443849     
     Electronic Dipole per cell (Ry a.u.)  -3.4350774751420721E-005
     Ionic Dipole per cell (Ry a.u.)   4246.0379077056505     

     Expectation value of exp(iGx):   (7.18472060248317446E-002,1.54531932167768712E-002)   1.0989361747729789     
     Electronic Dipole per cell (Ry a.u.)   1.9746945744606703     
     Ionic Dipole per cell (Ry a.u.)   5621.9048009689441     
Electronic Dipole on Cartesian axes
           1  -3.7343759193072409E-002
           2  -3.4350774751420721E-005
           3   1.9746945744606703     
Ionic Dipole on Cartesian axes
           1   3304.1298571441666     
           2   4246.0379077056505     
           3   5621.9048009689441     

     total cpu time spent up to now is    10751.3 secs

     total energy              =   -1803.49099829 Ry
     estimated scf accuracy    <          1.0E-09 Ry

     iteration #  7     ecut=   100.00 Ry     beta= 0.70
     Davidson diagonalization with overlap
     ethr =  2.63E-13,  avg # of iterations =  3.0

     Expectation value of exp(iGx):  (4.32129506472960570E-002,-1.90259879322185617E-004)   1.0000000000000000     
     Electronic Dipole per cell (Ry a.u.)  -3.7343586744709965E-002
     Ionic Dipole per cell (Ry a.u.)   3304.1298571441666     

     Expectation value of exp(iGx):  (1.52546431418329898E-002,-7.14236745398528095E-008)  0.86602540378443849     
     Electronic Dipole per cell (Ry a.u.)  -3.4391910991397922E-005
     Ionic Dipole per cell (Ry a.u.)   4246.0379077056505     

     Expectation value of exp(iGx):   (7.18470630541479943E-002,1.54537905089974521E-002)   1.0989361747729789     
     Electronic Dipole per cell (Ry a.u.)   1.9747724493492462     
     Ionic Dipole per cell (Ry a.u.)   5621.9048009689441     
Electronic Dipole on Cartesian axes
           1  -3.7343586744709965E-002
           2  -3.4391910991397922E-005
           3   1.9747724493492465     
Ionic Dipole on Cartesian axes
           1   3304.1298571441666     
           2   4246.0379077056505     
           3   5621.9048009689441     

     total cpu time spent up to now is    11235.7 secs

     total energy              =   -1803.49099853 Ry
     estimated scf accuracy    <          3.0E-10 Ry

     iteration #  8     ecut=   100.00 Ry     beta= 0.70
     Davidson diagonalization with overlap
     ethr =  1.00E-13,  avg # of iterations =  2.0

     Expectation value of exp(iGx):  (4.32129524712231566E-002,-1.90260505214026875E-004)   1.0000000000000000     
     Electronic Dipole per cell (Ry a.u.)  -3.7343708014947165E-002
     Ionic Dipole per cell (Ry a.u.)   3304.1298571441666     

     Expectation value of exp(iGx):  (1.52546440456857273E-002,-7.09442688957552445E-008)  0.86602540378443849     
     Electronic Dipole per cell (Ry a.u.)  -3.4161065674161286E-005
     Ionic Dipole per cell (Ry a.u.)   4246.0379077056505     

     Expectation value of exp(iGx):   (7.18470578836593460E-002,1.54538253218258828E-002)   1.0989361747729789     
     Electronic Dipole per cell (Ry a.u.)   1.9747769038972220     
     Ionic Dipole per cell (Ry a.u.)   5621.9048009689441     
Electronic Dipole on Cartesian axes
           1  -3.7343708014947165E-002
           2  -3.4161065674161286E-005
           3   1.9747769038972223     
Ionic Dipole on Cartesian axes
           1   3304.1298571441666     
           2   4246.0379077056505     
           3   5621.9048009689441     

     total cpu time spent up to now is    11648.9 secs

     total energy              =   -1803.49099845 Ry
     estimated scf accuracy    <          1.0E-10 Ry

     iteration #  9     ecut=   100.00 Ry     beta= 0.70
     Davidson diagonalization with overlap
     ethr =  1.00E-13,  avg # of iterations =  2.0

     Expectation value of exp(iGx):  (4.32129551702160816E-002,-1.90261010387071113E-004)   1.0000000000000000     
     Electronic Dipole per cell (Ry a.u.)  -3.7343804834986422E-002
     Ionic Dipole per cell (Ry a.u.)   3304.1298571441666     

     Expectation value of exp(iGx):  (1.52546452743667800E-002,-7.07032984122928539E-008)  0.86602540378443849     
     Electronic Dipole per cell (Ry a.u.)  -3.4045030888282780E-005
     Ionic Dipole per cell (Ry a.u.)   4246.0379077056505     

     Expectation value of exp(iGx):   (7.18470814181917106E-002,1.54537340644093340E-002)   1.0989361747729789     
     Electronic Dipole per cell (Ry a.u.)   1.9747649606718352     
     Ionic Dipole per cell (Ry a.u.)   5621.9048009689441     
Electronic Dipole on Cartesian axes
           1  -3.7343804834986422E-002
           2  -3.4045030888282780E-005
           3   1.9747649606718352     
Ionic Dipole on Cartesian axes
           1   3304.1298571441666     
           2   4246.0379077056505     
           3   5621.9048009689441     

     total cpu time spent up to now is    12079.6 secs

     total energy              =   -1803.49099844 Ry
     estimated scf accuracy    <          1.8E-12 Ry

     iteration # 10     ecut=   100.00 Ry     beta= 0.70
     Davidson diagonalization with overlap
     ethr =  1.00E-13,  avg # of iterations =  1.0

     Expectation value of exp(iGx):  (4.32129546409000947E-002,-1.90260140477316748E-004)   1.0000000000000000     
     Electronic Dipole per cell (Ry a.u.)  -3.7343634551586576E-002
     Ionic Dipole per cell (Ry a.u.)   3304.1298571441666     

     Expectation value of exp(iGx):  (1.52546450351084308E-002,-7.03510946968473247E-008)  0.86602540378443849     
     Electronic Dipole per cell (Ry a.u.)  -3.3875438392955574E-005
     Ionic Dipole per cell (Ry a.u.)   4246.0379077056505     

     Expectation value of exp(iGx):   (7.18470854669085585E-002,1.54537118706751155E-002)   1.0989361747729789     
     Electronic Dipole per cell (Ry a.u.)   1.9747621007581371     
     Ionic Dipole per cell (Ry a.u.)   5621.9048009689441     
Electronic Dipole on Cartesian axes
           1  -3.7343634551586576E-002
           2  -3.3875438392955574E-005
           3   1.9747621007581371     
Ionic Dipole on Cartesian axes
           1   3304.1298571441666     
           2   4246.0379077056505     
           3   5621.9048009689441     

     total cpu time spent up to now is    12497.5 secs

     End of self-consistent calculation

          k = 0.0000 0.0000 0.0000 (107453 PWs)   bands (ev):

   -17.0403 -16.5966 -16.5966 -16.5844 -16.5844 -16.5761 -16.5183 -16.5105
   -16.5105 -16.1229 -16.1229 -16.1213 -16.0969 -16.0969 -16.0937 -15.6454
   -15.6099 -15.6099 -15.5793 -15.5793 -15.5640 -15.5640 -15.5389 -15.0301
   -15.0228 -15.0228 -15.0112 -15.0081 -15.0081 -14.9821 -14.9821 -14.9810
   -14.9804 -14.9804 -14.9722 -14.9676 -14.9676 -14.9662 -14.9649 -14.9636
   -14.9583 -14.9583 -14.9562 -14.9562 -14.9554 -14.9358 -14.9358 -14.9192
    -7.1463  -6.2286  -6.2286  -6.1979  -6.0567  -6.0567  -6.0439  -6.0378
    -6.0378  -5.1819  -5.0894  -5.0505  -5.0505  -5.0308  -5.0308  -4.3275
    -4.3275  -4.2210  -4.0482  -4.0482  -3.9632  -3.9632  -3.6954  -3.3996
    -3.3996  -3.2496  -3.2394  -3.1913  -3.1844  -3.1844  -3.1768  -3.0981
    -3.0981  -3.0937  -3.0090  -3.0090  -3.0034  -3.0034  -2.9297  -2.9296
    -2.8538  -2.7235  -2.7198  -2.7198  -2.4256  -2.4146  -2.4146  -2.4141
    -0.9775  -0.9775  -0.9453  -0.9227  -0.8176  -0.7991  -0.7991  -0.7630
    -0.7630  -0.6769  -0.6510  -0.6510  -0.6261  -0.6261  -0.4861  -0.4779
    -0.4779  -0.4580  -0.4580  -0.3985  -0.3526  -0.3458  -0.3458  -0.2293
    -0.2099  -0.0442   0.0320   0.0320   0.0568   0.0568   0.0991   0.0991
     0.1110   0.1187   0.1244   0.2018   0.2018   0.2551   0.2551   0.3490
     0.3490   0.3643   0.3643   0.4740   0.4823   0.4860   0.4860   0.6414
     0.6659   0.6815   0.6815   0.6903   0.7059   0.7059   0.8187   0.8187
     0.9186   0.9952   1.0220   1.0220   1.0257   1.0801   1.1146   1.1146
     1.1261   1.1261   1.1444   1.1922   1.1922   1.2463   1.2463   1.3049
     1.3614   1.3824   1.4572   1.4572   1.5286   1.5286   1.5651   1.5658
     1.6426   1.6426   1.7734   1.7734   1.8387   1.8387   1.8635   1.8635
     1.8946   1.9604   1.9836   1.9836   2.0540   2.1285   2.1314   2.1315

          k = 0.0000 0.0000 0.4550 (107410 PWs)   bands (ev):

   -16.9247 -16.9246 -16.5510 -16.5510 -16.5492 -16.5492 -16.5485 -16.5484
   -16.1144 -16.1144 -16.1096 -16.1096 -16.1078 -16.1077 -16.1036 -16.1036
   -15.5919 -15.5919 -15.5917 -15.5917 -15.5839 -15.5839 -15.1400 -15.1399
   -15.0140 -15.0139 -15.0118 -15.0118 -15.0056 -15.0056 -14.9983 -14.9983
   -14.9900 -14.9900 -14.9845 -14.9844 -14.9626 -14.9625 -14.9621 -14.9621
   -14.9570 -14.9570 -14.9512 -14.9511 -14.9472 -14.9472 -14.9249 -14.9248
    -6.8474  -6.8474  -6.1406  -6.1406  -6.1394  -6.1394  -6.1248  -6.1247
    -5.1362  -5.1361  -5.0364  -5.0364  -5.0313  -5.0313  -5.0218  -5.0218
    -4.1651  -4.1651  -4.1634  -4.1634  -4.0071  -4.0071  -3.4185  -3.4184
    -3.3050  -3.3050  -3.2953  -3.2953  -3.2151  -3.2150  -3.1836  -3.1836
    -3.1699  -3.1699  -2.8997  -2.8997  -2.8858  -2.8858  -2.8785  -2.8785
    -2.6266  -2.6266  -2.6007  -2.6007  -2.5974  -2.5974  -2.5957  -2.5956
    -0.9232  -0.9232  -0.9204  -0.9204  -0.8867  -0.8866  -0.8188  -0.8188
    -0.7252  -0.7252  -0.6569  -0.6569  -0.6561  -0.6561  -0.4299  -0.4298
[...]
   -15.6481 -15.6481 -15.6389 -15.6389 -15.2974 -15.2974 -15.2957 -15.2957
   -15.0146 -15.0146 -15.0084 -15.0084 -15.0061 -15.0061 -14.9957 -14.9957
   -14.9853 -14.9853 -14.9809 -14.9809 -14.9657 -14.9657 -14.9651 -14.9651
   -14.9647 -14.9647 -14.9531 -14.9531 -14.9416 -14.9416 -14.9382 -14.9382
    -6.5877  -6.5875  -6.5875  -6.5873  -6.0618  -6.0618  -6.0596  -6.0596
    -5.0712  -5.0712  -5.0705  -5.0705  -4.9625  -4.9625  -4.9507  -4.9507
    -4.3257  -4.3257  -4.3195  -4.3195  -3.7037  -3.7037  -3.7016  -3.7016
    -3.2575  -3.2575  -3.2506  -3.2506  -3.1750  -3.1750  -3.1559  -3.1559
    -2.9981  -2.9981  -2.9955  -2.9955  -2.8930  -2.8930  -2.8839  -2.8839
    -2.6986  -2.6986  -2.6972  -2.6972  -2.5544  -2.5544  -2.5500  -2.5500
    -0.9247  -0.9247  -0.9168  -0.9168  -0.8644  -0.8644  -0.8634  -0.8633
    -0.6645  -0.6645  -0.6596  -0.6596  -0.4805  -0.4805  -0.4791  -0.4791
    -0.4536  -0.4535  -0.4505  -0.4505  -0.3497  -0.3496  -0.3492  -0.3492
    -0.0904  -0.0904  -0.0897  -0.0897   0.1288   0.1288   0.1304   0.1304
     0.1880   0.1880   0.1931   0.1931   0.2412   0.2412   0.2428   0.2428
     0.3328   0.3328   0.3352   0.3352   0.6277   0.6277   0.6325   0.6325
     0.6904   0.6904   0.6909   0.6909   0.8194   0.8194   0.8217   0.8217
     0.8504   0.8504   0.8514   0.8514   0.9214   0.9214   0.9266   0.9266
     1.1851   1.1851   1.1852   1.1852   1.2753   1.2754   1.2759   1.2760
     1.4937   1.4938   1.4940   1.4941   1.5702   1.5702   1.5706   1.5706
     1.6915   1.6915   1.6917   1.6918   1.8173   1.8173   1.8177   1.8178
     1.9770   1.9770   1.9795   1.9796   2.1010   2.1010   2.1012   2.1012

          k = 0.5000 0.5774 0.0000 (107556 PWs)   bands (ev):

   -16.7563 -16.7562 -16.7561 -16.7561 -16.5362 -16.5362 -16.5361 -16.5360
   -16.2992 -16.2991 -16.2991 -16.2991 -15.9111 -15.9111 -15.9111 -15.9111
   -15.5574 -15.5574 -15.5574 -15.5573 -15.3931 -15.3930 -15.3930 -15.3930
   -15.0091 -15.0091 -15.0090 -15.0089 -15.0045 -15.0045 -15.0044 -15.0043
   -14.9743 -14.9742 -14.9741 -14.9740 -14.9687 -14.9686 -14.9685 -14.9684
   -14.9545 -14.9544 -14.9543 -14.9542 -14.9500 -14.9500 -14.9500 -14.9499
    -6.4342  -6.4341  -6.4340  -6.4339  -6.1753  -6.1752  -6.1751  -6.1751
    -5.4267  -5.4267  -5.4266  -5.4266  -4.7086  -4.7086  -4.7086  -4.7086
    -4.2352  -4.2352  -4.2351  -4.2350  -3.5819  -3.5818  -3.5816  -3.5816
    -3.2225  -3.2224  -3.2203  -3.2202  -3.1338  -3.1337  -3.1316  -3.1316
    -3.1139  -3.1138  -3.1138  -3.1137  -3.0090  -3.0089  -3.0088  -3.0088
    -2.6327  -2.6326  -2.6325  -2.6325  -2.5722  -2.5721  -2.5720  -2.5719
    -0.8835  -0.8835  -0.8830  -0.8830  -0.8550  -0.8550  -0.8549  -0.8548
    -0.7915  -0.7914  -0.7908  -0.7908  -0.5834  -0.5833  -0.5832  -0.5832
    -0.3434  -0.3433  -0.3433  -0.3432  -0.1858  -0.1857  -0.1854  -0.1853
    -0.0814  -0.0813  -0.0808  -0.0807  -0.0289  -0.0288  -0.0283  -0.0282
     0.0897   0.0897   0.0903   0.0903   0.1861   0.1862   0.1864   0.1864
     0.4861   0.4862   0.4872   0.4873   0.6171   0.6172   0.6183   0.6184
     0.7021   0.7022   0.7057   0.7058   0.8124   0.8124   0.8145   0.8146
     0.9597   0.9598   0.9641   0.9642   0.9903   0.9903   0.9914   0.9914
     1.1758   1.1758   1.1759   1.1759   1.2301   1.2302   1.2329   1.2330
     1.3594   1.3594   1.3603   1.3604   1.5851   1.5852   1.5855   1.5856
     1.7244   1.7244   1.7255   1.7255   1.9131   1.9132   1.9134   1.9134
     1.9307   1.9308   1.9312   1.9313   2.0754   2.0755   2.0756   2.0757

          k = 0.5000 0.5774 0.4550 (107528 PWs)   bands (ev):

   -16.6782 -16.6782 -16.6779 -16.6778 -16.6762 -16.6762 -16.6758 -16.6758
   -16.0956 -16.0956 -16.0941 -16.0941 -16.0874 -16.0874 -16.0858 -16.0858
   -15.4686 -15.4686 -15.4653 -15.4653 -15.4549 -15.4549 -15.4514 -15.4514
   -15.0042 -15.0042 -14.9990 -14.9990 -14.9986 -14.9986 -14.9949 -14.9949
   -14.9834 -14.9834 -14.9806 -14.9806 -14.9800 -14.9800 -14.9735 -14.9735
   -14.9555 -14.9555 -14.9523 -14.9523 -14.9471 -14.9471 -14.9462 -14.9462
    -6.3328  -6.3328  -6.3324  -6.3324  -6.3311  -6.3311  -6.3307  -6.3307
    -5.0954  -5.0954  -5.0952  -5.0952  -5.0932  -5.0932  -5.0930  -5.0930
    -3.9105  -3.9105  -3.9103  -3.9102  -3.9090  -3.9090  -3.9088  -3.9088
    -3.2245  -3.2245  -3.2135  -3.2135  -3.2103  -3.2103  -3.1989  -3.1989
    -2.8923  -2.8923  -2.8872  -2.8872  -2.8858  -2.8858  -2.8808  -2.8808
    -2.7057  -2.7057  -2.7034  -2.7034  -2.6721  -2.6721  -2.6702  -2.6702
    -0.9351  -0.9351  -0.9331  -0.9331  -0.9070  -0.9070  -0.9047  -0.9047
    -0.5753  -0.5753  -0.5739  -0.5739  -0.5731  -0.5731  -0.5718  -0.5718
    -0.3555  -0.3555  -0.3511  -0.3511  -0.3299  -0.3299  -0.3271  -0.3271
    -0.1426  -0.1426  -0.1383  -0.1383  -0.0757  -0.0757  -0.0727  -0.0727
     0.1834   0.1834   0.1876   0.1876   0.2244   0.2244   0.2305   0.2305
     0.5357   0.5357   0.5401   0.5401   0.6087   0.6087   0.6097   0.6097
     0.6773   0.6773   0.6799   0.6799   0.7385   0.7385   0.7423   0.7423
     0.9837   0.9837   0.9843   0.9843   0.9887   0.9887   0.9896   0.9896
     1.2500   1.2500   1.2519   1.2519   1.3046   1.3046   1.3091   1.3091
     1.3757   1.3757   1.3790   1.3790   1.4203   1.4203   1.4224   1.4224
     1.7351   1.7351   1.7353   1.7353   1.8138   1.8138   1.8147   1.8147
     2.0347   2.0347   2.0352   2.0352   2.0890   2.0890   2.0898   2.0898

     highest occupied level (ev):     2.1511

!    total energy              =   -1803.49127221 Ry
     estimated scf accuracy    <          3.0E-13 Ry

     The total energy is the sum of the following terms:
     one-electron contribution =    -855.93805452 Ry
     hartree contribution      =     632.27799073 Ry
     xc contribution           =    -484.71620280 Ry
     ewald contribution        =   -1089.49087165 Ry

     convergence has been achieved in   6 iterations

     Forces acting on atoms (cartesian axes, Ry/au):

     atom    1 type  1   force =    -0.00000440   -0.00000360   -0.00004043
     atom    2 type  1   force =     0.00002915   -0.00000291   -0.00004803
     atom    3 type  1   force =     0.00003123   -0.00000478   -0.00002766
     atom    4 type  2   force =     0.00001009    0.00000597    0.00000869
     atom    5 type  2   force =    -0.00000086   -0.00001120    0.00001229
     atom    6 type  2   force =    -0.00003966    0.00000014    0.00003374
     atom    7 type  2   force =    -0.00002380    0.00003126    0.00003088
     atom    8 type  2   force =    -0.00000688    0.00000539    0.00000180
     atom    9 type  2   force =    -0.00000791   -0.00001921    0.00001557
     atom   10 type  1   force =    -0.00000994   -0.00000875   -0.00000069
     atom   11 type  1   force =     0.00004009   -0.00001081    0.00003146
     atom   12 type  1   force =     0.00003393    0.00000211    0.00001129
     atom   13 type  2   force =     0.00000731    0.00000580    0.00000878
     atom   14 type  2   force =    -0.00002394    0.00002307   -0.00002330
     atom   15 type  2   force =     0.00000122    0.00000561   -0.00000285
     atom   16 type  2   force =    -0.00000873   -0.00000499   -0.00000406
     atom   17 type  2   force =    -0.00004722    0.00000806   -0.00003296
     atom   18 type  2   force =    -0.00000883   -0.00001619    0.00001518
     atom   19 type  1   force =    -0.00002384    0.00001124   -0.00003822
     atom   20 type  1   force =     0.00000793   -0.00000905   -0.00002797
     atom   21 type  2   force =     0.00002239   -0.00003794    0.00003687
     atom   22 type  2   force =    -0.00001321    0.00001621    0.00001982
     atom   23 type  2   force =     0.00001455    0.00000587    0.00001470
     atom   24 type  2   force =    -0.00000527   -0.00001779    0.00001263
     atom   25 type  1   force =    -0.00001217    0.00000349    0.00004111
     atom   26 type  1   force =     0.00001061   -0.00000192    0.00001198
     atom   27 type  2   force =    -0.00000107   -0.00000327    0.00000091
     atom   28 type  2   force =     0.00000216   -0.00002035   -0.00001539
     atom   29 type  2   force =    -0.00002580    0.00000865   -0.00002001
     atom   30 type  2   force =    -0.00000653   -0.00001522    0.00001278
     atom   31 type  1   force =     0.00001489    0.00001007   -0.00001943
     atom   32 type  1   force =    -0.00004560    0.00001171   -0.00005053
     atom   33 type  1   force =    -0.00003361   -0.00000701   -0.00003150
     atom   34 type  2   force =     0.00000747   -0.00000011    0.00000397
     atom   35 type  2   force =     0.00001994   -0.00003571    0.00003359
     atom   36 type  2   force =    -0.00001134    0.00000494    0.00001388
     atom   37 type  2   force =    -0.00000459    0.00000664    0.00001252
     atom   38 type  2   force =     0.00005508    0.00000316    0.00004085
     atom   39 type  2   force =     0.00001484    0.00000545   -0.00000832
     atom   40 type  1   force =     0.00000944    0.00000482    0.00002040
     atom   41 type  1   force =    -0.00003330    0.00000404    0.00002874
     atom   42 type  1   force =    -0.00003096   -0.00000064    0.00000860
     atom   43 type  2   force =     0.00000505    0.00000063    0.00000475
     atom   44 type  2   force =    -0.00000336   -0.00000141   -0.00000197
     atom   45 type  2   force =     0.00002856    0.00001013   -0.00002202
     atom   46 type  2   force =     0.00001043   -0.00002947   -0.00002241
     atom   47 type  2   force =     0.00001377    0.00000586    0.00000554
     atom   48 type  2   force =     0.00001342    0.00000775   -0.00000791
     atom   49 type  1   force =     0.00004176    0.00001326   -0.00003108
     atom   50 type  1   force =     0.00000620    0.00000164   -0.00006093
     atom   51 type  1   force =    -0.00001069   -0.00000498   -0.00003085
     atom   52 type  2   force =    -0.00000297   -0.00001424   -0.00000660
     atom   53 type  2   force =    -0.00000148   -0.00001251    0.00001150
     atom   54 type  2   force =    -0.00005979    0.00000044    0.00004605
     atom   55 type  2   force =    -0.00001477    0.00002015    0.00002250
     atom   56 type  2   force =     0.00003372    0.00000204    0.00002838
     atom   57 type  2   force =     0.00001184    0.00000261   -0.00000444
     atom   58 type  1   force =     0.00003566    0.00000840    0.00000881
     atom   59 type  1   force =     0.00001774   -0.00000619    0.00001855
     atom   60 type  1   force =    -0.00000813    0.00000115    0.00000833
     atom   61 type  2   force =    -0.00000547   -0.00001387   -0.00000610
     atom   62 type  2   force =    -0.00002454    0.00002152   -0.00002377
     atom   63 type  2   force =    -0.00001885    0.00000590    0.00000968
     atom   64 type  2   force =    -0.00000004   -0.00001576   -0.00001200
     atom   65 type  2   force =    -0.00000740    0.00000486   -0.00000689
     atom   66 type  2   force =     0.00001074    0.00000526   -0.00000452
     atom   67 type  1   force =    -0.00003058   -0.00000312   -0.00002761
     atom   68 type  2   force =     0.00001886    0.00001615    0.00001635
     atom   69 type  2   force =     0.00000834    0.00000398    0.00000188
     atom   70 type  1   force =    -0.00003548   -0.00000832    0.00001223
     atom   71 type  2   force =     0.00001624    0.00001647    0.00001695
     atom   72 type  2   force =     0.00004835    0.00000942   -0.00003406

     Total force =     0.000300     Total SCF correction =     0.000002


     Computing stress (Cartesian axis) and pressure

          total   stress  (Ry/bohr**3)                   (kbar)     P=        6.79
   0.00004616   0.00000000  -0.00000000            6.79        0.00       -0.00
   0.00000000   0.00004617   0.00000000            0.00        6.79        0.00
  -0.00000000   0.00000000   0.00004617           -0.00        0.00        6.79

     Message from routine bfgs:
     history already reset at previous step: exiting
     Energy error            =      2.9E-09 Ry
     Gradient error          =      6.1E-05 Ry/Bohr

     bfgs failed after  11 scf cycles and  10 bfgs steps, convergence not achieved
     (criteria: energy <  1.0E-12 Ry, force <  1.0E-10 Ry/Bohr)

     End of BFGS Geometry Optimization

     Final energy             =   -1803.4912722112 Ry

     File /n/holyscratch01/kozinsky_lab/sfalletta/QE/SiO2/SiO2-sc222-relaxing-Ez-k222-1e-3/SiO2.bfgs deleted, as requested
Begin final coordinates

ATOMIC_POSITIONS (angstrom)
Si           -1.1800650113        2.0423223288        4.5696881174
Si            1.3139732112        2.2742721072        2.7435130773
Si            2.3587253239        0.0008062138        0.9173336172
O            -1.0835542806        3.1894953171        0.2365348021
O             0.8113005150        3.6610353870        2.0627129910
O             0.2722557804        1.7842739166        3.8888866654
O             1.4092444668        1.1328711784        1.5853897526
O             2.7691369106        2.5305128740        3.4115719671
O             3.2995804387        0.6540019548        5.2377515230
Si           -1.1800630573        2.0423260475       10.0482078999
Si            1.3139716534        2.2742760761        8.2220250892
Si            2.3587239342        0.0008045851        6.3958562433
O            -1.0835522170        3.1894928246        5.7150641578
O             0.8113064879        3.6610273749        7.5412521805
O             0.2722475400        1.7842751377        9.3674290853
O             1.4092416957        1.1328808534        7.0639323684
O             2.7691486109        2.5305147832        8.8901118078
O             3.2995840057        0.6540015726       10.7162808946
Si           -1.1786596794        6.5916729352        2.7435106144
Si           -0.1339194220        4.3182093030        0.9173305310
O            -1.6813559057        7.9784462994        2.0627080813
O            -1.0834023583        5.4502812715        1.5853915314
O             0.2764841262        6.8479216885        3.4115684713
O             0.8069262842        4.9714036089        5.2377467052
Si           -1.1786644598        6.5916709838        8.2220225426
Si           -0.1339219146        4.3182065326        6.3958510910
O            -1.6813518533        7.9784336146        7.5412493487
O            -1.0834113136        5.4502859136        7.0639327769
O             0.2764942172        6.8479164843        8.8901055438
O             0.8069307824        4.9714004813       10.7162754460
Si            3.8052334688        2.0423151593        4.5696838644
Si            6.2992942066        2.2742679252        2.7435158208
Si            7.3440437182        0.0008095243        0.9173326492
O             3.9017497927        3.1894919380        0.2365394249
O             5.7965930445        3.6610419765        2.0627134437
O             5.2575524750        1.7842680683        3.8888946879
O             6.3945410816        1.1328789328        1.5853950823
O             7.7544226702        2.5305168017        3.4115609735
O             8.2848767841        0.6539989735        5.2377564735
Si            3.8052361959        2.0423185680       10.0482048010
Si            6.2992930997        2.2742709190        8.2220251948
Si            7.3440432143        0.0008056471        6.3958539862
O             3.9017525931        3.1894912481        5.7150658868
O             5.7966021507        3.6610328933        7.5412480289
O             5.2575446566        1.7842724593        9.3674353855
O             6.3945378897        1.1328855867        7.0639366134
O             7.7544356937        2.5305184975        8.8900978773
O             8.2848762389        0.6540001868       10.7162835988
Si            1.3125764964        6.3597181221        4.5696874414
Si            3.8066320072        6.5916706386        2.7435195017
Si            4.8513844101        4.3182061016        0.9173354921
O             1.4091063574        7.5068931898        0.2365394490
O             3.3039508251        7.9784357647        2.0627190769
O             2.7649166552        6.1016739110        3.8888892244
O             3.9018913467        5.4502740407        1.5853944492
O             5.2617814932        6.8479139329        3.4115626150
O             5.7922296616        4.9713952002        5.2377521460
Si            1.3125803817        6.3597165365       10.0482040085
Si            3.8066317106        6.5916712746        8.2220268536
Si            4.8513869889        4.3182040271        6.3958511545
O             1.4091037046        7.5068936511        5.7150744720
O             3.3039589018        7.9784270397        7.5412579566
O             2.7649073985        6.1016682304        9.3674232273
O             3.9018926155        5.4502842699        7.0639284545
O             5.2617932931        6.8479113386        8.8901018381
O             5.7922272470        4.9713959604       10.7162869867
Si            6.2979006529        6.3597187633        4.5696835748
O             6.3944016810        7.5068867822        0.2365335027
O             7.7502029837        6.1016728255        3.8888942946
Si            6.2979013977        6.3597194184       10.0482059826
O             6.3944030821        7.5068852545        5.7150625137
O             7.7501932219        6.1016687716        9.3674380680
End final coordinates



     Writing all to output data dir /n/holyscratch01/kozinsky_lab/sfalletta/QE/SiO2/SiO2-sc222-relaxing-Ez-k222-1e-3/SiO2.save/

     init_run     :      5.86s CPU      6.65s WALL (       1 calls)
     electrons    :  40084.21s CPU  43711.55s WALL (      11 calls)
     update_pot   :      6.28s CPU      6.41s WALL (      10 calls)
     forces       :     36.01s CPU     36.35s WALL (      11 calls)
     stress       :    553.97s CPU    560.37s WALL (      11 calls)

     Called by init_run:
     wfcinit      :      3.71s CPU      3.96s WALL (       1 calls)
     potinit      :      0.25s CPU      0.29s WALL (       1 calls)
     hinit0       :      0.25s CPU      0.58s WALL (       1 calls)

     Called by electrons:
     c_bands      :   3901.30s CPU   3927.62s WALL (     108 calls)
     sum_band     :     56.68s CPU     57.46s WALL (     108 calls)
     v_of_rho     :      3.71s CPU      3.82s WALL (     109 calls)
     mix_rho      :      0.44s CPU      0.51s WALL (     108 calls)

     Called by c_bands:
     init_us_2    :     14.42s CPU     14.62s WALL (    1912 calls)
     init_us_2:cp :     14.41s CPU     14.62s WALL (    1912 calls)
     cegterg      :   3865.24s CPU   3890.90s WALL (     864 calls)

     Called by *egterg:
     cdiaghg      :     64.45s CPU     65.10s WALL (    2688 calls)
     h_psi        :   3639.77s CPU   3663.45s WALL (    2856 calls)
     g_psi        :      1.44s CPU      1.46s WALL (    1984 calls)

     Called by h_psi:
     h_psi:calbec :    119.42s CPU    120.25s WALL (    2856 calls)
     vloc_psi     :    271.13s CPU    274.59s WALL (    2856 calls)
     add_vuspsi   :     80.63s CPU     81.20s WALL (    2856 calls)

     General routines
     calbec       :    156.90s CPU    158.03s WALL (    3296 calls)
     fft          :      2.68s CPU      3.12s WALL (    1570 calls)
     ffts         :      0.17s CPU      0.20s WALL (     217 calls)
     fftw         :    283.79s CPU    287.37s WALL ( 1089706 calls)
     interpolate  :      0.25s CPU      0.27s WALL (     109 calls)
     davcio       :      0.00s CPU      0.11s WALL (       8 calls)

     Parallel routines

     Electric-field routines
     h_epsi_set   :   1133.42s CPU   1183.17s WALL (     108 calls)
     h_epsi_apply :   3165.29s CPU   3184.07s WALL (    2848 calls)
     c_phase_fiel :  34986.61s CPU  38535.01s WALL (     294 calls)

     PWSCF        :     11h18m CPU     12h18m WALL


   This run was terminated on:   5:28:27  16Feb2024            

=------------------------------------------------------------------------------=
   JOB DONE.
=------------------------------------------------------------------------------=
