
     Program PWSCF v.7.1 starts on  1Feb2024 at 22:44:28 

     This program is part of the open-source Quantum ESPRESSO suite
     for quantum simulation of materials; please cite
         "P. Giannozzi et al., J. Phys.:Condens. Matter 21 395502 (2009);
         "P. Giannozzi et al., J. Phys.:Condens. Matter 29 465901 (2017);
         "P. Giannozzi et al., J. Chem. Phys. 152 154105 (2020);
          URL http://www.quantum-espresso.org", 
     in publications or presentations arising from this work. More details at
     http://www.quantum-espresso.org/quote

     Parallel version (MPI), running on   112 processors

     MPI processes distributed on     1 nodes
     1002522 MiB available memory on the printing compute node when the environment starts

     Reading input from /n/holyscratch01/kozinsky_lab/sfalletta/QE/SiO2/SiO2-T600-Ez-0/SiO2-scf.inp

     Current dimensions of program PWSCF are:
     Max number of different atomic species (ntypx) = 10
     Max number of k-points (npk) =  40000
     Max angular momentum in pseudopotentials (lmaxx) =  4

     IMPORTANT: XC functional enforced from input :
     Exchange-correlation= PBE
                           (   1   4   3   4   0   0   0)
     Any further DFT definition will be discarded
     Please, verify this is what you really want


     R & G space division:  proc/nbgrp/npool/nimage =     112
     Subspace diagonalization in iterative solution of the eigenvalue problem:
     one sub-group per band group will be used
     scalapack distributed-memory algorithm (size of sub-group: 10* 10 procs)


     Parallelization info
     --------------------
     sticks:   dense  smooth     PW     G-vecs:    dense   smooth      PW
     Min         174      87     23                21712     7675    1045
     Max         175      88     24                21721     7680    1049
     Sum       19575    9769   2585              2432309   859779  117343

     Using Slab Decomposition



     bravais-lattice index     =           14
     lattice parameter (alat)  =      18.8417  a.u.
     unit-cell volume          =    6365.9664 (a.u.)^3
     number of atoms/cell      =           72
     number of atomic types    =            2
     number of electrons       =       384.00
     number of Kohn-Sham states=          220
     kinetic-energy cutoff     =     100.0000  Ry
     charge density cutoff     =     800.0000  Ry
     scf convergence threshold =      1.0E-08
     mixing beta               =       0.7000
     number of iterations used =            8  plain     mixing
     Exchange-correlation= PBE
                           (   1   4   3   4   0   0   0)

     Using Berry phase electric field
     In a.u.(Ry)  cartesian system of reference
        0.0000000000
        0.0000000000
        0.0001000000
     In a.u.(Ry)  crystal system of reference
        0.0000000000
        0.0000000000
        0.0001000000
     Number of iterative cycles:   1


     celldm(1)=  18.841714  celldm(2)=   0.866025  celldm(3)=   1.098936
     celldm(4)=   0.000000  celldm(5)=   0.000000  celldm(6)=   0.000000

     crystal axes: (cart. coord. in units of alat)
               a(1) = (   1.000000   0.000000   0.000000 )  
               a(2) = (   0.000000   0.866025   0.000000 )  
               a(3) = (   0.000000   0.000000   1.098936 )  

     reciprocal axes: (cart. coord. in units 2 pi/alat)
               b(1) = (  1.000000  0.000000  0.000000 )  
               b(2) = (  0.000000  1.154701  0.000000 )  
               b(3) = (  0.000000  0.000000  0.909971 )  


     PseudoPot. # 1 for Si read from file:
     /n/holyscratch01/kozinsky_lab/sfalletta/QE/Inputs/Si.upf
     MD5 check sum: 1e49d63d1c5892e9c2567cdfc797a7ef
     Pseudo is Norm-conserving + core correction, Zval =  4.0
     Generated using ONCVPSP code by D. R. Hamann
     Using radial grid of 1510 points,  6 beta functions with: 
                l(1) =   0
                l(2) =   0
                l(3) =   1
                l(4) =   1
                l(5) =   2
                l(6) =   2

     PseudoPot. # 2 for O  read from file:
     /n/holyscratch01/kozinsky_lab/sfalletta/QE/Inputs/O.upf
     MD5 check sum: e161f86cb4953fdc9aae83e76c3f29b8
     Pseudo is Norm-conserving + core correction, Zval =  6.0
     Generated using ONCVPSP code by D. R. Hamann
     Using radial grid of  936 points,  5 beta functions with: 
                l(1) =   0
                l(2) =   0
                l(3) =   1
                l(4) =   1
                l(5) =   2

     atomic species   valence    mass     pseudopotential
        Si             4.00    28.08550     Si( 1.00)
        O              6.00    15.99900     O ( 1.00)

     No symmetry found



   Cartesian axes

     site n.     atom                  positions (alat units)
         1           Si  tau(   1) = (   0.8841790   0.2115197   0.4435277  )
         2           Si  tau(   2) = (   0.1360088   0.2222864   0.2853458  )
         3           Si  tau(   3) = (   0.2218812   0.8562469   0.0885200  )
         4           O   tau(   4) = (   0.9308211   0.2918639   0.0348738  )
         5           O   tau(   5) = (   0.0934266   0.3688612   0.2281015  )
         6           O   tau(   6) = (   0.0148497   0.1768197   0.3646007  )
         7           O   tau(   7) = (   0.1600976   0.1287525   0.1607726  )
         8           O   tau(   8) = (   0.2613913   0.2713476   0.3654823  )
         9           O   tau(   9) = (   0.3460472   0.0856930   0.5255348  )
        10           Si  tau(  10) = (   0.9033985   0.1907196   1.0162873  )
        11           Si  tau(  11) = (   0.1391701   0.2040026   0.8311631  )
        12           Si  tau(  12) = (   0.2573525   0.0056010   0.6344760  )
        13           O   tau(  13) = (   0.8968923   0.3366024   0.5409982  )
        14           O   tau(  14) = (   0.0687931   0.3117724   0.7281955  )
        15           O   tau(  15) = (   0.0248331   0.1502667   0.9275846  )
        16           O   tau(  16) = (   0.2235411   0.0567707   0.7785986  )
        17           O   tau(  17) = (   0.2659196   0.2933944   0.9161881  )
        18           O   tau(  18) = (   0.3170369   0.0743158   1.0630748  )
        19           Si  tau(  19) = (   0.8516604   0.6618735   0.2663579  )
        20           Si  tau(  20) = (   0.9944742   0.4227857   0.1061941  )
        21           O   tau(  21) = (   0.8018931   0.8022963   0.2069142  )
        22           O   tau(  22) = (   0.8974831   0.5383926   0.1567598  )
        23           O   tau(  23) = (   0.9984479   0.6938415   0.3716775  )
        24           O   tau(  24) = (   0.0809499   0.5007940   0.5494781  )
        25           Si  tau(  25) = (   0.8676133   0.6384507   0.8159685  )
        26           Si  tau(  26) = (   0.9867545   0.4246502   0.6473157  )
        27           O   tau(  27) = (   0.8422788   0.7775415   0.7234786  )
        28           O   tau(  28) = (   0.8983566   0.5249089   0.7197837  )
        29           O   tau(  29) = (   0.9673003   0.6471272   0.9456075  )
        30           O   tau(  30) = (   0.1061179   0.5000669   0.0050833  )
        31           Si  tau(  31) = (   0.3868902   0.2164432   0.4376344  )
        32           Si  tau(  32) = (   0.6446328   0.2189024   0.2674592  )
        33           Si  tau(  33) = (   0.7507768   0.0033077   0.0745000  )
        34           O   tau(  34) = (   0.4104405   0.3475095   0.0298776  )
        35           O   tau(  35) = (   0.5991050   0.3664401   0.2028683  )
        36           O   tau(  36) = (   0.5042362   0.1512355   0.3470391  )
        37           O   tau(  37) = (   0.6660508   0.1183098   0.1433965  )
        38           O   tau(  38) = (   0.7709451   0.2378180   0.3459700  )
        39           O   tau(  39) = (   0.8411716   0.0795476   0.5353827  )
        40           Si  tau(  40) = (   0.3798325   0.2447875   1.0137699  )
        41           Si  tau(  41) = (   0.6482425   0.2420906   0.8386110  )
        42           Si  tau(  42) = (   0.7591926   0.0106095   0.6424946  )
        43           O   tau(  43) = (   0.4187709   0.3316438   0.5574546  )
        44           O   tau(  44) = (   0.6234416   0.3501984   0.7148833  )
        45           O   tau(  45) = (   0.5139708   0.2139188   0.9194135  )
        46           O   tau(  46) = (   0.6861168   0.0989839   0.7499133  )
        47           O   tau(  47) = (   0.7973337   0.2544539   0.9277761  )
        48           O   tau(  48) = (   0.8519542   0.0540641   1.0663444  )
        49           Si  tau(  49) = (   0.1073626   0.6483458   0.4707929  )
        50           Si  tau(  50) = (   0.3514049   0.6648743   0.2817111  )
        51           Si  tau(  51) = (   0.5190647   0.4416472   0.1005606  )
        52           O   tau(  52) = (   0.1203748   0.7609367   0.0117073  )
        53           O   tau(  53) = (   0.2862986   0.7814600   0.1969449  )
        54           O   tau(  54) = (   0.2476810   0.6222691   0.3946360  )
        55           O   tau(  55) = (   0.4304463   0.5683416   0.1718782  )
        56           O   tau(  56) = (   0.4862312   0.6985644   0.3702934  )
        57           O   tau(  57) = (   0.5687648   0.5330479   0.5371780  )
        58           Si  tau(  58) = (   0.1019757   0.6316106   1.0197174  )
        59           Si  tau(  59) = (   0.3706355   0.6428677   0.8062178  )
        60           Si  tau(  60) = (   0.5203816   0.4265157   0.6439699  )
        61           O   tau(  61) = (   0.1274837   0.7858289   0.5587173  )
        62           O   tau(  62) = (   0.3606692   0.7487659   0.6915106  )
        63           O   tau(  63) = (   0.2350760   0.5985564   0.9173585  )
        64           O   tau(  64) = (   0.4236122   0.5054708   0.7534116  )
        65           O   tau(  65) = (   0.4768336   0.6816356   0.9158240  )
        66           O   tau(  66) = (   0.5951865   0.5237415   1.0898234  )
        67           Si  tau(  67) = (   0.6196885   0.6595226   0.4531891  )
        68           O   tau(  68) = (   0.6371378   0.7782235   0.0078980  )
        69           O   tau(  69) = (   0.7360536   0.6221939   0.3603382  )
        70           Si  tau(  70) = (   0.6084956   0.6623429   1.0006945  )
        71           O   tau(  71) = (   0.6469426   0.7727234   0.5580674  )
        72           O   tau(  72) = (   0.7217676   0.6221518   0.8881807  )

     number of k points=     8
                       cart. coord. in units 2pi/alat
        k(    1) = (   0.0000000   0.0000000   0.0000000), wk =   0.2500000
        k(    2) = (   0.0000000   0.0000000   0.4549855), wk =   0.2500000
        k(    3) = (   0.0000000   0.5773503   0.0000000), wk =   0.2500000
        k(    4) = (   0.0000000   0.5773503   0.4549855), wk =   0.2500000
        k(    5) = (   0.5000000   0.0000000   0.0000000), wk =   0.2500000
        k(    6) = (   0.5000000   0.0000000   0.4549855), wk =   0.2500000
        k(    7) = (   0.5000000   0.5773503   0.0000000), wk =   0.2500000
        k(    8) = (   0.5000000   0.5773503   0.4549855), wk =   0.2500000

     Dense  grid:  2432309 G-vectors     FFT dimensions: ( 180, 150, 192)

     Smooth grid:   859779 G-vectors     FFT dimensions: ( 120, 108, 135)

     Estimated max dynamical RAM per process >      78.77 MB

     Estimated total dynamical RAM >       8.62 GB

     Initial potential from superposition of free atoms

     starting charge     383.9851, renormalised to     384.0000
     Starting wfcs are  288 randomized atomic wfcs

     total cpu time spent up to now is        6.7 secs

     Self-consistent Calculation

     iteration #  1     ecut=   100.00 Ry     beta= 0.70
     Davidson diagonalization with overlap
     ethr =  1.00E-02,  avg # of iterations =  3.0

     Expectation value of exp(iGx):   (7.30467620791409866E-002,2.86011115573606423E-002)   1.0000000000000000     
     Electronic Dipole per cell (Ry a.u.)   3.1653608232322483     
     Ionic Dipole per cell (Ry a.u.)   5220.7307615604614     

     Expectation value of exp(iGx):   (1.26743330697586601E-002,3.06171157035498714E-002)  0.86602540378443849     
     Electronic Dipole per cell (Ry a.u.)   8.6551850436297268     
     Ionic Dipole per cell (Ry a.u.)   4333.8671907424050     

     Expectation value of exp(iGx):       (0.12002476873678657,-3.34346088841837351E-003)   1.0989361747729789     
     Electronic Dipole per cell (Ry a.u.) -0.25957991236029182     
     Ionic Dipole per cell (Ry a.u.)   5446.6758445586356     
Electronic Dipole on Cartesian axes
           1   3.1653608232322483     
           2   8.6551850436297268     
           3 -0.25957991236029182     
Ionic Dipole on Cartesian axes
           1   5220.7307615604614     
           2   4333.8671907424050     
           3   5446.6758445586356     

     total cpu time spent up to now is      547.3 secs

     total energy              =   -1789.14789833 Ry
     estimated scf accuracy    <      19.87192856 Ry

     iteration #  2     ecut=   100.00 Ry     beta= 0.70
     Davidson diagonalization with overlap
     ethr =  5.17E-03,  avg # of iterations =  8.9

     Expectation value of exp(iGx):   (2.28299478280799342E-002,9.11847455578171720E-003)   1.0000000000000000     
     Electronic Dipole per cell (Ry a.u.)   3.2230344419476293     
     Ionic Dipole per cell (Ry a.u.)   5220.7307615604614     

     Expectation value of exp(iGx):   (4.00155419410137998E-003,5.77459051302130558E-003)  0.86602540378443849     
     Electronic Dipole per cell (Ry a.u.)   7.0869384797967481     
     Ionic Dipole per cell (Ry a.u.)   4333.8671907424050     

     Expectation value of exp(iGx):   (4.54108882934174118E-002,7.45902008727161682E-005)   1.0989361747729789     
     Electronic Dipole per cell (Ry a.u.)   1.5310148312688288E-002
     Ionic Dipole per cell (Ry a.u.)   5446.6758445586356     
Electronic Dipole on Cartesian axes
           1   3.2230344419476293     
           2   7.0869384797967490     
           3   1.5310148312688288E-002
Ionic Dipole on Cartesian axes
           1   5220.7307615604614     
           2   4333.8671907424050     
           3   5446.6758445586356     

     total cpu time spent up to now is     1119.4 secs

     total energy              =   -1795.23813344 Ry
     estimated scf accuracy    <      11.66027876 Ry

     iteration #  3     ecut=   100.00 Ry     beta= 0.70
     Davidson diagonalization with overlap
     ethr =  3.04E-03,  avg # of iterations =  2.4

     Expectation value of exp(iGx):   (3.96786019603662249E-002,1.38089401313925327E-002)   1.0000000000000000     
     Electronic Dipole per cell (Ry a.u.)   2.8406204454584167     
     Ionic Dipole per cell (Ry a.u.)   5220.7307615604614     

     Expectation value of exp(iGx):   (6.16943651974729158E-003,1.29187193802335065E-002)  0.86602540378443849     
     Electronic Dipole per cell (Ry a.u.)   8.2655208586843809     
     Ionic Dipole per cell (Ry a.u.)   4333.8671907424050     

     Expectation value of exp(iGx):  (7.09993909409045026E-002,-2.46386796607964793E-003)   1.0989361747729789     
     Electronic Dipole per cell (Ry a.u.) -0.32333042356928410     
     Ionic Dipole per cell (Ry a.u.)   5446.6758445586356     
Electronic Dipole on Cartesian axes
           1   2.8406204454584167     
           2   8.2655208586843809     
           3 -0.32333042356928410     
Ionic Dipole on Cartesian axes
           1   5220.7307615604614     
           2   4333.8671907424050     
           3   5446.6758445586356     

     total cpu time spent up to now is     1650.7 secs

     total energy              =   -1797.19152134 Ry
     estimated scf accuracy    <       0.19940156 Ry

     iteration #  4     ecut=   100.00 Ry     beta= 0.70
     Davidson diagonalization with overlap
     ethr =  5.19E-05,  avg # of iterations = 14.5

     Expectation value of exp(iGx):   (4.16931001160019341E-002,1.62843357459294021E-002)   1.0000000000000000     
     Electronic Dipole per cell (Ry a.u.)   3.1582324819744159     
     Ionic Dipole per cell (Ry a.u.)   5220.7307615604614     

     Expectation value of exp(iGx):   (7.54731766166040399E-003,1.36566067167086941E-002)  0.86602540378443849     
     Electronic Dipole per cell (Ry a.u.)   7.8296304415688791     
     Ionic Dipole per cell (Ry a.u.)   4333.8671907424050     

     Expectation value of exp(iGx):  (7.51121821387117916E-002,-1.37004431851287163E-003)   1.0989361747729789     
     Electronic Dipole per cell (Ry a.u.) -0.16999419452978412     
     Ionic Dipole per cell (Ry a.u.)   5446.6758445586356     
Electronic Dipole on Cartesian axes
           1   3.1582324819744159     
           2   7.8296304415688791     
           3 -0.16999419452978412     
Ionic Dipole on Cartesian axes
           1   5220.7307615604614     
           2   4333.8671907424050     
           3   5446.6758445586356     

     total cpu time spent up to now is     2208.0 secs

     total energy              =   -1797.28521357 Ry
     estimated scf accuracy    <       0.09334334 Ry

     iteration #  5     ecut=   100.00 Ry     beta= 0.70
     Davidson diagonalization with overlap
     ethr =  2.43E-05,  avg # of iterations = 12.1

     Expectation value of exp(iGx):   (4.21158762540842085E-002,1.57577620977342667E-002)   1.0000000000000000     
     Electronic Dipole per cell (Ry a.u.)   3.0367001247270835     
     Ionic Dipole per cell (Ry a.u.)   5220.7307615604614     

     Expectation value of exp(iGx):   (7.00566286417623162E-003,1.40422060816003461E-002)  0.86602540378443849     
     Electronic Dipole per cell (Ry a.u.)   8.1389278690852027     
     Ionic Dipole per cell (Ry a.u.)   4333.8671907424050     

     Expectation value of exp(iGx):  (7.53286019520948008E-002,-1.85758734053870483E-003)   1.0989361747729789     
     Electronic Dipole per cell (Ry a.u.) -0.22980492681987696     
     Ionic Dipole per cell (Ry a.u.)   5446.6758445586356     
Electronic Dipole on Cartesian axes
           1   3.0367001247270835     
           2   8.1389278690852027     
           3 -0.22980492681987694     
Ionic Dipole on Cartesian axes
           1   5220.7307615604614     
           2   4333.8671907424050     
           3   5446.6758445586356     

     total cpu time spent up to now is     2773.9 secs

     total energy              =   -1797.29293706 Ry
     estimated scf accuracy    <       0.02300049 Ry

     iteration #  6     ecut=   100.00 Ry     beta= 0.70
     Davidson diagonalization with overlap
     ethr =  5.99E-06,  avg # of iterations =  6.1

     Expectation value of exp(iGx):   (4.17497904369474385E-002,1.56525703286322614E-002)   1.0000000000000000     
     Electronic Dipole per cell (Ry a.u.)   3.0423622282686824     
     Ionic Dipole per cell (Ry a.u.)   5220.7307615604614     

     Expectation value of exp(iGx):   (7.09392193977695547E-003,1.37910872146974235E-002)  0.86602540378443849     
     Electronic Dipole per cell (Ry a.u.)   8.0484226729954074     
     Ionic Dipole per cell (Ry a.u.)   4333.8671907424050     

     Expectation value of exp(iGx):  (7.47798169213134134E-002,-1.82763802324344832E-003)   1.0989361747729789     
     Electronic Dipole per cell (Ry a.u.) -0.22775994369878008     
     Ionic Dipole per cell (Ry a.u.)   5446.6758445586356     
Electronic Dipole on Cartesian axes
           1   3.0423622282686824     
           2   8.0484226729954074     
           3 -0.22775994369878011     
Ionic Dipole on Cartesian axes
           1   5220.7307615604614     
           2   4333.8671907424050     
           3   5446.6758445586356     

     total cpu time spent up to now is     3296.5 secs

     total energy              =   -1797.29275257 Ry
     estimated scf accuracy    <       0.00530756 Ry

     iteration #  7     ecut=   100.00 Ry     beta= 0.70
     Davidson diagonalization with overlap
     ethr =  1.38E-06,  avg # of iterations =  9.6

     Expectation value of exp(iGx):   (4.14370471906066948E-002,1.54944051684098878E-002)   1.0000000000000000     
     Electronic Dipole per cell (Ry a.u.)   3.0350173413404669     
     Ionic Dipole per cell (Ry a.u.)   5220.7307615604614     

     Expectation value of exp(iGx):   (6.99387777441385500E-003,1.36614216127965444E-002)  0.86602540378443849     
     Electronic Dipole per cell (Ry a.u.)   8.0626147861360860     
     Ionic Dipole per cell (Ry a.u.)   4333.8671907424050     

     Expectation value of exp(iGx):  (7.42857820492534154E-002,-1.77632417414332099E-003)   1.0989361747729789     
     Electronic Dipole per cell (Ry a.u.) -0.22283929792332943     
     Ionic Dipole per cell (Ry a.u.)   5446.6758445586356     
Electronic Dipole on Cartesian axes
           1   3.0350173413404669     
           2   8.0626147861360860     
           3 -0.22283929792332943     
Ionic Dipole on Cartesian axes
           1   5220.7307615604614     
           2   4333.8671907424050     
           3   5446.6758445586356     

     total cpu time spent up to now is     3836.6 secs

     total energy              =   -1797.29346738 Ry
     estimated scf accuracy    <       0.00034984 Ry

     iteration #  8     ecut=   100.00 Ry     beta= 0.70
     Davidson diagonalization with overlap
     c_bands:  1 eigenvalues not converged
     ethr =  9.11E-08,  avg # of iterations = 15.9

     Expectation value of exp(iGx):   (4.13177954522374741E-002,1.54562090368244066E-002)   1.0000000000000000     
     Electronic Dipole per cell (Ry a.u.)   3.0361690603399301     
     Ionic Dipole per cell (Ry a.u.)   5220.7307615604614     

     Expectation value of exp(iGx):   (6.99352491392562364E-003,1.35937338948882089E-002)  0.86602540378443849     
     Electronic Dipole per cell (Ry a.u.)   8.0479447734211380     
     Ionic Dipole per cell (Ry a.u.)   4333.8671907424050     

     Expectation value of exp(iGx):  (7.41054312555607803E-002,-1.79104716001207069E-003)   1.0989361747729789     
     Electronic Dipole per cell (Ry a.u.) -0.22523218524795532     
     Ionic Dipole per cell (Ry a.u.)   5446.6758445586356     
Electronic Dipole on Cartesian axes
           1   3.0361690603399301     
           2   8.0479447734211380     
           3 -0.22523218524795532     
Ionic Dipole on Cartesian axes
           1   5220.7307615604614     
           2   4333.8671907424050     
           3   5446.6758445586356     

     total cpu time spent up to now is     4417.9 secs

     total energy              =   -1797.29359321 Ry
     estimated scf accuracy    <       0.00003568 Ry

     iteration #  9     ecut=   100.00 Ry     beta= 0.70
     Davidson diagonalization with overlap
     ethr =  9.29E-09,  avg # of iterations =  8.6

     Expectation value of exp(iGx):   (4.13334172401969638E-002,1.54561219658493672E-002)   1.0000000000000000     
     Electronic Dipole per cell (Ry a.u.)   3.0351013741470960     
     Ionic Dipole per cell (Ry a.u.)   5220.7307615604614     

     Expectation value of exp(iGx):   (6.99175389062557662E-003,1.36033840236423759E-002)  0.86602540378443849     
     Electronic Dipole per cell (Ry a.u.)   8.0508212426457035     
     Ionic Dipole per cell (Ry a.u.)   4333.8671907424050     

     Expectation value of exp(iGx):  (7.41274824511955893E-002,-1.78282012669908228E-003)   1.0989361747729789     
     Electronic Dipole per cell (Ry a.u.) -0.22413133099743554     
     Ionic Dipole per cell (Ry a.u.)   5446.6758445586356     
Electronic Dipole on Cartesian axes
           1   3.0351013741470960     
           2   8.0508212426457035     
           3 -0.22413133099743554     
Ionic Dipole on Cartesian axes
           1   5220.7307615604614     
           2   4333.8671907424050     
           3   5446.6758445586356     

     total cpu time spent up to now is     4958.6 secs

     total energy              =   -1797.29359914 Ry
     estimated scf accuracy    <       0.00000467 Ry

     iteration # 10     ecut=   100.00 Ry     beta= 0.70
     Davidson diagonalization with overlap
     ethr =  1.22E-09,  avg # of iterations = 13.8

     Expectation value of exp(iGx):   (4.13400009959348155E-002,1.54593260103954855E-002)   1.0000000000000000     
     Electronic Dipole per cell (Ry a.u.)   3.0352349576328095     
     Ionic Dipole per cell (Ry a.u.)   5220.7307615604614     

     Expectation value of exp(iGx):   (6.99059742478714413E-003,1.36074182358875643E-002)  0.86602540378443849     
     Electronic Dipole per cell (Ry a.u.)   8.0522005845845896     
     Ionic Dipole per cell (Ry a.u.)   4333.8671907424050     

     Expectation value of exp(iGx):  (7.41369785086201522E-002,-1.78655626149491309E-003)   1.0989361747729789     
     Electronic Dipole per cell (Ry a.u.) -0.22457208862665468     
     Ionic Dipole per cell (Ry a.u.)   5446.6758445586356     
Electronic Dipole on Cartesian axes
           1   3.0352349576328095     
           2   8.0522005845845896     
           3 -0.22457208862665468     
Ionic Dipole on Cartesian axes
           1   5220.7307615604614     
           2   4333.8671907424050     
           3   5446.6758445586356     

     total cpu time spent up to now is     5499.9 secs

     total energy              =   -1797.29359945 Ry
     estimated scf accuracy    <       0.00000067 Ry

     iteration # 11     ecut=   100.00 Ry     beta= 0.70
     Davidson diagonalization with overlap
     c_bands:  1 eigenvalues not converged
     ethr =  1.74E-10,  avg # of iterations = 10.2

     Expectation value of exp(iGx):   (4.13448706270188801E-002,1.54613587046396050E-002)   1.0000000000000000     
     Electronic Dipole per cell (Ry a.u.)   3.0352730531630727     
     Ionic Dipole per cell (Ry a.u.)   5220.7307615604614     

     Expectation value of exp(iGx):   (6.99215724464987906E-003,1.36094163317828122E-002)  0.86602540378443849     
     Electronic Dipole per cell (Ry a.u.)   8.0519728417363972     
     Ionic Dipole per cell (Ry a.u.)   4333.8671907424050     

     Expectation value of exp(iGx):  (7.41444203100758981E-002,-1.78669754893550779E-003)   1.0989361747729789     
     Electronic Dipole per cell (Ry a.u.) -0.22456730860482182     
     Ionic Dipole per cell (Ry a.u.)   5446.6758445586356     
Electronic Dipole on Cartesian axes
           1   3.0352730531630727     
           2   8.0519728417363972     
           3 -0.22456730860482182     
Ionic Dipole on Cartesian axes
           1   5220.7307615604614     
           2   4333.8671907424050     
           3   5446.6758445586356     

     total cpu time spent up to now is     6036.4 secs

     total energy              =   -1797.29359969 Ry
     estimated scf accuracy    <       0.00000005 Ry

     iteration # 12     ecut=   100.00 Ry     beta= 0.70
     Davidson diagonalization with overlap
     c_bands:  1 eigenvalues not converged
     c_bands:  1 eigenvalues not converged
     c_bands:  1 eigenvalues not converged
     c_bands:  1 eigenvalues not converged
     ethr =  1.23E-11,  avg # of iterations = 19.5

     Expectation value of exp(iGx):   (4.13455637193654718E-002,1.54615198621661683E-002)   1.0000000000000000     
     Electronic Dipole per cell (Ry a.u.)   3.0352554099558260     
     Ionic Dipole per cell (Ry a.u.)   5220.7307615604614     

     Expectation value of exp(iGx):   (6.99213283130954016E-003,1.36098100733829212E-002)  0.86602540378443849     
     Electronic Dipole per cell (Ry a.u.)   8.0520696468256094     
     Ionic Dipole per cell (Ry a.u.)   4333.8671907424050     

     Expectation value of exp(iGx):  (7.41455120711569660E-002,-1.78636231803493270E-003)   1.0989361747729789     
     Electronic Dipole per cell (Ry a.u.) -0.22452188548031765     
     Ionic Dipole per cell (Ry a.u.)   5446.6758445586356     
Electronic Dipole on Cartesian axes
           1   3.0352554099558260     
           2   8.0520696468256094     
           3 -0.22452188548031765     
Ionic Dipole on Cartesian axes
           1   5220.7307615604614     
           2   4333.8671907424050     
           3   5446.6758445586356     

     total cpu time spent up to now is     6627.9 secs

     total energy              =   -1797.29359971 Ry
     estimated scf accuracy    <       0.00000002 Ry

     iteration # 13     ecut=   100.00 Ry     beta= 0.70
     Davidson diagonalization with overlap
     ethr =  4.98E-12,  avg # of iterations =  6.4

     Expectation value of exp(iGx):   (4.13451304041095799E-002,1.54613455657363879E-002)   1.0000000000000000     
     Electronic Dipole per cell (Ry a.u.)   3.0352532044246319     
     Ionic Dipole per cell (Ry a.u.)   5220.7307615604614     

     Expectation value of exp(iGx):   (6.99209008850688006E-003,1.36095838432225471E-002)  0.86602540378443849     
     Electronic Dipole per cell (Ry a.u.)   8.0520382679418514     
     Ionic Dipole per cell (Ry a.u.)   4333.8671907424050     

     Expectation value of exp(iGx):  (7.41448398219724247E-002,-1.78648648177564444E-003)   1.0989361747729789     
     Electronic Dipole per cell (Ry a.u.) -0.22453952019468895     
     Ionic Dipole per cell (Ry a.u.)   5446.6758445586356     
Electronic Dipole on Cartesian axes
           1   3.0352532044246319     
           2   8.0520382679418514     
           3 -0.22453952019468895     
Ionic Dipole on Cartesian axes
           1   5220.7307615604614     
           2   4333.8671907424050     
           3   5446.6758445586356     

     total cpu time spent up to now is     7156.3 secs

     End of self-consistent calculation

          k = 0.0000 0.0000 0.0000 (107453 PWs)   bands (ev):

   -17.9838 -17.7254 -17.6494 -17.2942 -17.1772 -17.0413 -17.0117 -16.8722
   -16.7854 -16.6626 -16.5565 -16.4688 -16.3932 -16.2409 -16.2258 -16.1510
   -16.1155 -16.0756 -15.8981 -15.8558 -15.7866 -15.6886 -15.6312 -15.5782
   -15.5250 -15.4606 -15.3987 -15.3123 -15.2083 -15.1767 -15.0984 -15.0725
   -15.0493 -14.9913 -14.9289 -14.8711 -14.7959 -14.6272 -14.5848 -14.5087
   -14.4909 -14.3732 -14.2312 -14.2108 -14.0612 -13.6137 -13.1827 -12.9790
    -7.6816  -7.0201  -6.9080  -6.5642  -6.5192  -6.2949  -6.2238  -6.1221
    -5.9594  -5.5913  -5.4212  -5.3271  -5.2527  -5.0983  -5.0888  -4.6491
    -4.6263  -4.4663  -4.3758  -4.1911  -4.0906  -3.9724  -3.9610  -3.8696
    -3.7887  -3.6603  -3.6040  -3.4574  -3.4456  -3.3782  -3.3057  -3.2110
    -3.1679  -3.0954  -3.0740  -2.9992  -2.8918  -2.8198  -2.7038  -2.5940
    -2.5573  -2.4953  -2.3862  -2.2750  -2.1750  -2.0151  -1.9073  -1.7470
    -1.6945  -1.5356  -1.4671  -1.3984  -1.3864  -1.2717  -1.2021  -1.1573
    -1.1543  -1.0708  -1.0268  -1.0063  -0.9112  -0.8904  -0.8465  -0.8193
    -0.7766  -0.7333  -0.7091  -0.6539  -0.6334  -0.5275  -0.4853  -0.3921
    -0.3672  -0.3253  -0.2543  -0.2112  -0.1590  -0.1476  -0.0378  -0.0248
     0.0085   0.0265   0.0518   0.1012   0.1137   0.1691   0.2300   0.2407
     0.2518   0.2888   0.3388   0.3561   0.4276   0.4662   0.4756   0.5584
     0.5793   0.6160   0.6551   0.6751   0.7309   0.7596   0.8309   0.8509
     0.8896   0.9632   0.9734   1.0075   1.0304   1.0858   1.1273   1.1813
     1.1980   1.2299   1.2914   1.3399   1.3653   1.4365   1.4812   1.5106
     1.5735   1.6023   1.6287   1.6875   1.7086   1.7855   1.8212   1.8696
     1.9468   2.0205   2.0682   2.0842   2.1256   2.1692   2.2660   2.3181
     2.4640   2.6158   2.7651   2.8004   2.9026   2.9878   3.0344   3.1595
     7.4912   8.6186   8.8432   9.1668   9.5576   9.6513   9.6952  10.1122
    10.1950  10.2628  10.4388  10.4607  10.5693  10.6482  10.7455  10.7992
    10.8021  10.9041  10.9661  11.0115  11.0541  11.1615  11.1948  11.3525
    11.4374  11.5060  11.5511  11.6073

          k = 0.0000 0.0000 0.4550 (107410 PWs)   bands (ev):

   -17.9756 -17.7534 -17.6310 -17.3026 -17.1820 -17.0403 -16.9759 -16.8769
   -16.8137 -16.6329 -16.5663 -16.4788 -16.3530 -16.2479 -16.2234 -16.1633
   -16.1454 -16.0884 -15.9476 -15.8215 -15.7642 -15.6860 -15.6230 -15.5756
   -15.4968 -15.4812 -15.4223 -15.2686 -15.2310 -15.1958 -15.0971 -15.0545
   -15.0210 -14.9802 -14.9473 -14.8936 -14.7981 -14.6378 -14.5898 -14.5093
   -14.4829 -14.3677 -14.2280 -14.2118 -14.0592 -13.6170 -13.1830 -12.9791
    -7.5359  -7.2821  -6.8192  -6.7284  -6.4810  -6.3431  -6.1507  -5.9636
    -5.8974  -5.5680  -5.5113  -5.2893  -5.2144  -5.0431  -5.0035  -4.9191
    -4.6260  -4.5295  -4.2873  -4.1988  -4.1010  -4.0780  -3.9845  -3.8731
    -3.7080  -3.6232  -3.5436  -3.4831  -3.4452  -3.3598  -3.3231  -3.1822
    -3.1658  -3.1357  -3.0641  -2.9665  -2.9103  -2.7938  -2.6638  -2.6500
    -2.5992  -2.4749  -2.4169  -2.2272  -2.1574  -2.0345  -1.9032  -1.7590
    -1.6550  -1.6080  -1.4884  -1.4002  -1.3840  -1.2812  -1.2163  -1.1685
    -1.1123  -1.0448  -1.0031  -0.9866  -0.9555  -0.9136  -0.8750  -0.8261
    -0.8218  -0.7352  -0.7105  -0.6156  -0.5553  -0.5333  -0.4754  -0.4161
    -0.3929  -0.3142  -0.2990  -0.1907  -0.1282  -0.1016  -0.0519   0.0049
     0.0154   0.0355   0.0697   0.0829   0.1540   0.1661   0.1991   0.2540
     0.3018   0.3364   0.3755   0.3942   0.4097   0.4364   0.4597   0.5197
     0.5497   0.6203   0.6454   0.6799   0.6997   0.7160   0.7904   0.8563
     0.8766   0.9278   0.9447   0.9982   1.0557   1.1220   1.1323   1.1666
     1.2244   1.2791   1.3074   1.3248   1.3731   1.4190   1.4601   1.5021
     1.5257   1.5712   1.6555   1.6606   1.7289   1.7816   1.8251   1.8597
     1.9358   1.9917   2.0888   2.0926   2.1854   2.2002   2.2494   2.3743
     2.4555   2.5876   2.7526   2.8126   2.8934   2.9832   3.0281   3.1577
     7.8797   8.0567   8.8348   9.1944   9.5574   9.6568   9.7552  10.1550
    10.2680  10.3270  10.3950  10.4174  10.5070  10.6436  10.7221  10.7499
    10.8233  10.8852  10.9433  11.0243  11.1002  11.1672  11.2279  11.2512
    11.4341  11.4694  11.4987  11.6392

          k = 0.0000 0.5774 0.0000 (107384 PWs)   bands (ev):

   -17.9717 -17.7296 -17.6393 -17.3477 -17.1632 -17.0245 -16.9933 -16.8682
   -16.8318 -16.6763 -16.5649 -16.4334 -16.3481 -16.3012 -16.2096 -16.1637
   -16.1300 -16.0289 -15.8847 -15.8738 -15.7939 -15.6625 -15.6319 -15.5701
   -15.4948 -15.4909 -15.4122 -15.2867 -15.2584 -15.1996 -15.1401 -15.0297
   -14.9966 -14.9698 -14.8998 -14.8829 -14.8210 -14.6352 -14.5638 -14.5233
   -14.4942 -14.3833 -14.2430 -14.2215 -14.0623 -13.6152 -13.1810 -12.9806
    -7.4844  -7.1107  -6.8920  -6.8252  -6.4665  -6.3201  -6.1582  -5.9934
    -5.8961  -5.8201  -5.5274  -5.3970  -5.1965  -5.0869  -4.8908  -4.8126
    -4.5048  -4.4547  -4.3723  -4.2369  -4.0747  -4.0104  -3.8880  -3.7910
    -3.7541  -3.6459  -3.6276  -3.5233  -3.3785  -3.3712  -3.2874  -3.2455
    -3.1417  -3.1197  -3.0429  -2.9449  -2.9385  -2.8227  -2.7212  -2.6486
    -2.5394  -2.4640  -2.4323  -2.3059  -2.1697  -2.0158  -1.8682  -1.7807
    -1.6860  -1.5327  -1.4692  -1.4275  -1.4092  -1.3358  -1.1790  -1.1504
    -1.1373  -1.0777  -1.0401  -1.0114  -0.9581  -0.8831  -0.8563  -0.8109
    -0.7520  -0.7119  -0.6606  -0.5886  -0.5653  -0.5496  -0.4524  -0.4277
    -0.3593  -0.3464  -0.3053  -0.2507  -0.1761  -0.1427  -0.1045  -0.0677
     0.0139   0.0425   0.0611   0.1123   0.1322   0.1548   0.1964   0.2785
     0.3162   0.3236   0.3761   0.3824   0.4378   0.4572   0.4885   0.5325
     0.5599   0.5659   0.6435   0.6959   0.7153   0.7824   0.7990   0.8248
     0.8812   0.9491   0.9679   1.0006   1.0634   1.0974   1.1429   1.1599
     1.2289   1.2604   1.3112   1.3276   1.3499   1.4125   1.4646   1.5169
     1.5369   1.5841   1.6057   1.6703   1.7691   1.7949   1.8394   1.8519
     1.9329   1.9835   2.0444   2.0607   2.1817   2.2176   2.3036   2.3142
     2.4859   2.5867   2.7884   2.8098   2.8965   2.9585   3.0266   3.1586
     8.0198   8.4004   8.7454   9.1519   9.4025   9.5103   9.7402   9.9419
    10.1142  10.3044  10.3789  10.4849  10.5556  10.6233  10.7471  10.8015
    10.8818  10.9060  10.9928  11.1139  11.1396  11.1883  11.2259  11.2740
    11.3899  11.4994  11.5485  11.6110

          k = 0.0000 0.5774 0.4550 (107468 PWs)   bands (ev):

   -17.9680 -17.7353 -17.6397 -17.3439 -17.1625 -17.0503 -16.9986 -16.8702
   -16.8010 -16.6513 -16.5457 -16.4629 -16.3361 -16.2533 -16.2451 -16.1938
   -16.1677 -16.0288 -15.9402 -15.8085 -15.7794 -15.6667 -15.6256 -15.5710
   -15.5102 -15.4700 -15.3721 -15.3158 -15.2786 -15.1986 -15.1048 -15.0471
   -14.9983 -14.9762 -14.9050 -14.8917 -14.8113 -14.6352 -14.5751 -14.5184
   -14.4925 -14.3793 -14.2474 -14.2150 -14.0604 -13.6176 -13.1811 -12.9807
    -7.4357  -7.1103  -6.9463  -6.8407  -6.4986  -6.4114  -6.1579  -6.0389
    -5.7973  -5.6407  -5.4863  -5.2357  -5.1880  -5.0788  -5.0407  -5.0136
    -4.6144  -4.4547  -4.3113  -4.1402  -4.0502  -4.0269  -3.9755  -3.8566
    -3.7510  -3.6401  -3.5132  -3.4709  -3.3841  -3.3136  -3.2801  -3.2428
    -3.2314  -3.1379  -3.0675  -2.9829  -2.8914  -2.7736  -2.6882  -2.6765
    -2.5560  -2.5222  -2.4545  -2.1646  -2.1350  -2.0565  -1.9329  -1.8115
    -1.6032  -1.5653  -1.4781  -1.4532  -1.4134  -1.3071  -1.2252  -1.1683
    -1.1377  -1.0803  -1.0407  -0.9894  -0.9333  -0.8947  -0.8172  -0.7643
    -0.7350  -0.7103  -0.6897  -0.6415  -0.5814  -0.5345  -0.5077  -0.4624
    -0.3618  -0.2690  -0.2667  -0.2378  -0.1829  -0.1617  -0.0837  -0.0466
    -0.0219   0.0164   0.0539   0.1264   0.1347   0.1888   0.2242   0.2787
     0.2916   0.3426   0.3709   0.3971   0.4410   0.4635   0.4742   0.5186
     0.5630   0.5773   0.6144   0.6562   0.7009   0.7644   0.8249   0.8492
     0.8818   0.9158   0.9687   0.9968   1.0350   1.0907   1.1195   1.1810
     1.2261   1.2501   1.3207   1.3298   1.3810   1.4253   1.4932   1.5030
     1.5602   1.5831   1.6236   1.6462   1.7348   1.7878   1.8463   1.8669
     1.9302   1.9622   2.0447   2.1219   2.1688   2.2247   2.2614   2.3474
     2.4976   2.5543   2.8027   2.8245   2.8687   2.9513   3.0259   3.1694
     8.1782   8.5663   8.6475   8.9120   9.0333   9.6819   9.8331  10.0192
    10.1027  10.3072  10.3693  10.4188  10.5584  10.6382  10.6792  10.7431
    10.8569  10.8767  10.9821  11.1034  11.1756  11.1989  11.2605  11.3271
    11.4093  11.5659  11.5773  11.6090

          k = 0.5000 0.0000 0.0000 (107420 PWs)   bands (ev):

   -17.9766 -17.7249 -17.6478 -17.3029 -17.2129 -17.0451 -17.0133 -16.8734
   -16.7589 -16.6555 -16.4960 -16.4374 -16.4058 -16.3155 -16.1967 -16.1612
   -16.1340 -16.0792 -15.9013 -15.8611 -15.8117 -15.6929 -15.6406 -15.5406
   -15.5120 -15.4543 -15.4057 -15.2699 -15.2425 -15.1520 -15.1019 -15.0949
   -15.0225 -14.9958 -14.9296 -14.8753 -14.8011 -14.6277 -14.5803 -14.5152
   -14.4982 -14.3765 -14.2320 -14.2108 -14.0617 -13.6144 -13.1877 -12.9790
    -7.5745  -7.0036  -6.9668  -6.6866  -6.4786  -6.4340  -6.2347  -6.1126
    -5.7647  -5.6500  -5.4560  -5.3966  -5.0969  -5.0398  -4.8434  -4.7400
    -4.6516  -4.5130  -4.4609  -4.3008  -4.2597  -4.0272  -3.9527  -3.7991
    -3.7543  -3.6239  -3.5535  -3.4557  -3.4239  -3.3499  -3.2925  -3.2666
    -3.1724  -3.1418  -3.0180  -2.9881  -2.9131  -2.7935  -2.6614  -2.5742
    -2.5457  -2.4809  -2.4105  -2.2963  -2.1970  -2.1084  -1.8912  -1.7178
    -1.6475  -1.5564  -1.4702  -1.3901  -1.3638  -1.2554  -1.1949  -1.1563
    -1.1304  -1.0604  -1.0119  -0.9899  -0.9385  -0.9204  -0.8768  -0.8308
    -0.8103  -0.7621  -0.6922  -0.6364  -0.6139  -0.5615  -0.5092  -0.4444
    -0.3338  -0.2726  -0.2601  -0.2214  -0.1185  -0.1101  -0.0623  -0.0388
     0.0072   0.0381   0.1182   0.1326   0.1514   0.1826   0.1900   0.2032
     0.2502   0.3041   0.3525   0.3746   0.4119   0.4526   0.5224   0.5313
     0.5814   0.5987   0.6378   0.6666   0.6963   0.7385   0.8108   0.8447
     0.9018   0.9144   0.9851   1.0016   1.0500   1.0634   1.1127   1.1640
     1.2242   1.2450   1.3029   1.3390   1.3962   1.4320   1.4810   1.5170
     1.5469   1.5715   1.6710   1.6924   1.7372   1.7868   1.8113   1.8656
     1.9431   2.0091   2.0593   2.0984   2.1631   2.1912   2.2628   2.3594
     2.4647   2.6089   2.7694   2.7969   2.8833   2.9557   2.9908   3.1524
     7.8926   8.1855   8.8335   9.2063   9.4422   9.6879   9.8223  10.0447
    10.1377  10.1871  10.3715  10.4505  10.6394  10.6516  10.7025  10.8041
    10.8672  10.9141  10.9721  11.0015  11.1601  11.1799  11.2936  11.3755
    11.4349  11.4998  11.5157  11.5844

          k = 0.5000 0.0000 0.4550 (107560 PWs)   bands (ev):

   -17.9690 -17.7517 -17.6294 -17.3060 -17.2166 -17.0476 -17.0071 -16.8568
   -16.7732 -16.6346 -16.4934 -16.4825 -16.3581 -16.2688 -16.2260 -16.2019
   -16.1496 -16.0940 -15.9458 -15.8448 -15.7534 -15.6746 -15.6168 -15.5786
   -15.5093 -15.4444 -15.4350 -15.2802 -15.2171 -15.1718 -15.0830 -15.0650
   -15.0370 -14.9780 -14.9400 -14.8953 -14.7995 -14.6489 -14.5794 -14.5210
   -14.4943 -14.3645 -14.2281 -14.2106 -14.0594 -13.6180 -13.1878 -12.9790
    -7.4766  -7.2056  -6.8037  -6.7105  -6.6525  -6.4896  -6.2210  -5.9879
    -5.7175  -5.4942  -5.3524  -5.2898  -5.1727  -5.1121  -5.0338  -4.8925
    -4.6667  -4.5410  -4.4483  -4.2229  -4.0880  -4.0371  -3.9894  -3.8679
    -3.7108  -3.6869  -3.5597  -3.5174  -3.4049  -3.3409  -3.2491  -3.2186
    -3.1783  -3.0872  -3.0266  -2.9539  -2.8964  -2.7929  -2.6991  -2.5933
    -2.5771  -2.5043  -2.4770  -2.2624  -2.1639  -2.0310  -1.9217  -1.7796
    -1.6591  -1.5530  -1.4933  -1.3860  -1.3450  -1.2592  -1.2159  -1.1632
    -1.0944  -1.0344  -1.0022  -0.9672  -0.9367  -0.9219  -0.9090  -0.8221
    -0.8146  -0.7437  -0.6933  -0.6724  -0.5726  -0.5332  -0.4945  -0.4218
    -0.3619  -0.2940  -0.2871  -0.1971  -0.1469  -0.0861  -0.0636  -0.0277
    -0.0025   0.0114   0.0655   0.1267   0.1400   0.1921   0.2094   0.2312
     0.2868   0.3583   0.3693   0.3828   0.4320   0.4671   0.5068   0.5466
     0.5710   0.6105   0.6203   0.6339   0.6467   0.7450   0.7946   0.8086
     0.8760   0.8971   0.9461   0.9869   1.0550   1.0713   1.1077   1.2220
     1.2406   1.2991   1.3096   1.3242   1.3959   1.4493   1.4632   1.4931
     1.5155   1.5485   1.6591   1.6822   1.7365   1.7975   1.8672   1.8890
     1.9726   2.0142   2.0456   2.0976   2.1298   2.1761   2.2686   2.3778
     2.4588   2.5909   2.7546   2.8236   2.8718   2.9644   2.9908   3.1561
     8.0919   8.3569   8.5506   8.7826   9.5953   9.6754   9.8008  10.0111
    10.1468  10.2397  10.4084  10.5339  10.5691  10.7628  10.8023  10.8261
    10.8679  10.9767  10.9865  11.0615  11.1058  11.1724  11.2184  11.2747
    11.3499  11.4320  11.5337  11.5956

          k = 0.5000 0.5774 0.0000 (107556 PWs)   bands (ev):

   -17.9651 -17.7291 -17.6378 -17.3449 -17.1957 -17.0586 -17.0048 -16.8475
   -16.8011 -16.6393 -16.5498 -16.4457 -16.3439 -16.3141 -16.1965 -16.1657
   -16.1295 -16.0719 -15.9134 -15.8479 -15.7904 -15.6751 -15.6261 -15.5535
   -15.4944 -15.4817 -15.4085 -15.3050 -15.2228 -15.1785 -15.1642 -15.0422
   -14.9951 -14.9600 -14.9068 -14.8814 -14.8203 -14.6272 -14.5920 -14.5206
   -14.4947 -14.3825 -14.2424 -14.2214 -14.0613 -13.6157 -13.1857 -12.9806
    -7.4234  -7.0639  -6.8713  -6.8021  -6.5454  -6.3819  -6.2904  -6.1478
    -5.8946  -5.6160  -5.4674  -5.3157  -5.1171  -4.9786  -4.9342  -4.7946
    -4.6277  -4.5802  -4.4557  -4.1972  -4.1472  -3.9626  -3.8884  -3.7772
    -3.7313  -3.6940  -3.6221  -3.4581  -3.4133  -3.3455  -3.3298  -3.2694
    -3.1353  -3.1025  -3.0197  -2.9537  -2.8938  -2.8351  -2.6905  -2.5548
    -2.5352  -2.4801  -2.4499  -2.3279  -2.1672  -2.0996  -1.8869  -1.7436
    -1.6722  -1.5474  -1.4867  -1.4030  -1.3422  -1.3186  -1.2534  -1.1869
    -1.1016  -1.0638  -1.0601  -1.0295  -0.9641  -0.9181  -0.8608  -0.7742
    -0.7570  -0.7052  -0.6134  -0.5985  -0.5688  -0.5113  -0.4887  -0.3877
    -0.3628  -0.3345  -0.2790  -0.2479  -0.1838  -0.1716  -0.1137  -0.0691
     0.0045   0.0313   0.0422   0.1194   0.1371   0.1609   0.1978   0.2390
     0.2948   0.3231   0.3582   0.3689   0.4250   0.4648   0.5229   0.5732
     0.5812   0.6058   0.6173   0.6785   0.7432   0.7555   0.8104   0.8349
     0.9031   0.9295   1.0059   1.0252   1.0482   1.0907   1.1049   1.1616
     1.2029   1.2720   1.3006   1.3192   1.3504   1.3819   1.4674   1.4752
     1.5386   1.5837   1.6657   1.7306   1.7704   1.7845   1.8248   1.8362
     1.8687   2.0369   2.0488   2.1024   2.1573   2.2724   2.2912   2.3565
     2.4869   2.5702   2.7917   2.8014   2.8742   2.9408   2.9793   3.1524
     8.2527   8.4690   8.6449   9.1948   9.3163   9.4785   9.5910   9.8054
    10.1805  10.2422  10.3904  10.4402  10.5557  10.5849  10.7803  10.8170
    10.8740  10.9200  11.0376  11.1015  11.1216  11.1571  11.2188  11.3228
    11.4433  11.4783  11.5503  11.6604

          k = 0.5000 0.5774 0.4550 (107528 PWs)   bands (ev):

   -17.9619 -17.7345 -17.6378 -17.3424 -17.1874 -17.0579 -17.0434 -16.8443
   -16.7711 -16.6296 -16.4981 -16.4818 -16.3610 -16.3017 -16.2182 -16.1696
   -16.1598 -16.0673 -15.9155 -15.8401 -15.7662 -15.6778 -15.5934 -15.5885
   -15.5113 -15.4602 -15.3961 -15.3083 -15.2391 -15.1984 -15.1162 -15.0463
   -15.0038 -14.9746 -14.9014 -14.8941 -14.8114 -14.6330 -14.5873 -14.5269
   -14.4964 -14.3739 -14.2473 -14.2135 -14.0592 -13.6185 -13.1856 -12.9806
    -7.4047  -7.0727  -6.9065  -6.7892  -6.5075  -6.4597  -6.4003  -6.0551
    -5.7395  -5.5473  -5.3617  -5.2704  -5.1866  -5.1833  -5.0609  -4.9041
    -4.5879  -4.4500  -4.3870  -4.2584  -4.0983  -3.9693  -3.9234  -3.8202
    -3.7954  -3.6323  -3.5706  -3.4729  -3.4583  -3.3556  -3.2772  -3.2047
    -3.1660  -3.0638  -3.0331  -2.9610  -2.8597  -2.7932  -2.6767  -2.6669
    -2.5824  -2.5372  -2.4584  -2.1661  -2.1351  -2.1242  -1.9345  -1.8063
    -1.5667  -1.5338  -1.4951  -1.4286  -1.4074  -1.2840  -1.2490  -1.1888
    -1.0836  -1.0733  -1.0251  -1.0067  -0.9226  -0.9061  -0.8656  -0.8088
    -0.7779  -0.6962  -0.6756  -0.5938  -0.5757  -0.5251  -0.4938  -0.4303
    -0.3818  -0.3129  -0.2638  -0.2168  -0.2115  -0.1591  -0.1217  -0.0649
    -0.0266   0.0187   0.0668   0.0919   0.1244   0.1809   0.2495   0.2643
     0.3030   0.3508   0.3803   0.3948   0.4349   0.4390   0.4974   0.5418
     0.5718   0.6457   0.6480   0.6737   0.6922   0.7361   0.7822   0.8026
     0.8414   0.9273   1.0038   1.0271   1.0396   1.1049   1.1533   1.1766
     1.2081   1.2689   1.2773   1.3293   1.3369   1.4394   1.4932   1.5072
     1.5705   1.6119   1.6485   1.6617   1.6983   1.7963   1.8472   1.9011
     1.9251   2.0121   2.0656   2.0887   2.1410   2.2102   2.2619   2.3497
     2.5023   2.5516   2.8038   2.8329   2.8545   2.9277   2.9959   3.1631
     8.3037   8.6003   8.7650   8.9926   9.1633   9.3180   9.6317   9.8292
    10.0380  10.1438  10.3599  10.5376  10.6347  10.6547  10.7271  10.8387
    10.8975  10.9747  11.0324  11.1038  11.1302  11.2205  11.2516  11.3134
    11.4194  11.5133  11.5521  11.6339

     highest occupied, lowest unoccupied level (ev):     3.1694    7.4912

!    total energy              =   -1797.29359970 Ry
     estimated scf accuracy    <          1.8E-09 Ry

     The total energy is the sum of the following terms:
     one-electron contribution =    -908.16234883 Ry
     hartree contribution      =     658.74904768 Ry
     xc contribution           =    -486.18453300 Ry
     ewald contribution        =   -1061.15112041 Ry

     convergence has been achieved in  13 iterations

     Forces acting on atoms (cartesian axes, Ry/au):

     atom    1 type  1   force =     0.06016114   -0.06800284    0.19028399
     atom    2 type  1   force =     0.04094678    0.10632896   -0.13838898
     atom    3 type  1   force =    -0.02956264    0.29858552   -0.25952631
     atom    4 type  2   force =     0.00743877    0.05814474    0.06186232
     atom    5 type  2   force =    -0.06522471    0.04963001   -0.05068744
     atom    6 type  2   force =    -0.07177871   -0.09483422    0.08645525
     atom    7 type  2   force =     0.00160484   -0.08140528   -0.04221348
     atom    8 type  2   force =     0.00502006    0.02273672   -0.00770621
     atom    9 type  2   force =    -0.05029986   -0.02482694    0.03316803
     atom   10 type  1   force =     0.04686668    0.02753940    0.02683366
     atom   11 type  1   force =     0.14024244    0.02126487    0.02333659
     atom   12 type  1   force =     0.04348761   -0.18305082   -0.09081741
     atom   13 type  2   force =    -0.01759401    0.02218656    0.02759507
     atom   14 type  2   force =     0.03951402   -0.04209938    0.04375972
     atom   15 type  2   force =     0.08796035   -0.02236873   -0.03585229
     atom   16 type  2   force =    -0.11870332    0.18747039    0.06887276
     atom   17 type  2   force =    -0.13528377   -0.03099166   -0.09509514
     atom   18 type  2   force =     0.01626989    0.05217560    0.04315723
     atom   19 type  1   force =     0.21085218   -0.03118958    0.00884974
     atom   20 type  1   force =     0.15824045   -0.00684915    0.00187560
     atom   21 type  2   force =     0.09740780   -0.06043884    0.03583127
     atom   22 type  2   force =    -0.08382921    0.09336158    0.06698318
     atom   23 type  2   force =    -0.21411461   -0.00730856   -0.17110818
     atom   24 type  2   force =     0.08464000    0.13087040   -0.06563488
     atom   25 type  1   force =    -0.11164570    0.20837580    0.11324805
     atom   26 type  1   force =     0.04348107   -0.16553395   -0.11280982
     atom   27 type  2   force =     0.15707901   -0.16606305    0.12793708
     atom   28 type  2   force =    -0.05309882   -0.03521488    0.00788015
     atom   29 type  2   force =    -0.10967490    0.02308897   -0.10563609
     atom   30 type  2   force =    -0.06644963   -0.11231745    0.08717417
     atom   31 type  1   force =     0.08714628    0.00609424    0.16056481
     atom   32 type  1   force =    -0.26501984   -0.03288938   -0.11881971
     atom   33 type  1   force =    -0.09969932   -0.00311671    0.00287735
     atom   34 type  2   force =    -0.01956722   -0.02616805    0.01275340
     atom   35 type  2   force =     0.13022378   -0.13407994    0.15648935
     atom   36 type  2   force =     0.10392962    0.07593479   -0.04551226
     atom   37 type  2   force =    -0.03423228    0.08593026    0.00420802
     atom   38 type  2   force =     0.00675198    0.05866087   -0.01320074
     atom   39 type  2   force =     0.10511149    0.12058538   -0.14236174
     atom   40 type  1   force =    -0.02759067   -0.19979109    0.00673150
     atom   41 type  1   force =     0.10894494   -0.10072859   -0.06416562
     atom   42 type  1   force =    -0.19656892   -0.10606705   -0.02588614
     atom   43 type  2   force =     0.00509989   -0.06090175   -0.05651937
     atom   44 type  2   force =     0.24534997   -0.17099785    0.20250863
     atom   45 type  2   force =    -0.00014086    0.01281099    0.03777923
     atom   46 type  2   force =    -0.07196941    0.11701432    0.07454258
     atom   47 type  2   force =    -0.24141052    0.11272800   -0.16270080
     atom   48 type  2   force =     0.00689581   -0.10669845    0.02699768
     atom   49 type  1   force =     0.08477300   -0.04172702    0.07326589
     atom   50 type  1   force =     0.16678040   -0.07976320    0.02551845
     atom   51 type  1   force =    -0.18826940    0.19822918   -0.03933216
     atom   52 type  2   force =    -0.02755623    0.03693361    0.01555141
     atom   53 type  2   force =     0.12082609   -0.09664965    0.17624787
     atom   54 type  2   force =    -0.01352451   -0.03792243   -0.00762177
     atom   55 type  2   force =    -0.03941284   -0.05278930   -0.00032454
     atom   56 type  2   force =    -0.01471172    0.04853921   -0.02398766
     atom   57 type  2   force =     0.05191970   -0.03131412   -0.00069165
     atom   58 type  1   force =     0.20735076   -0.01428940   -0.09095367
     atom   59 type  1   force =    -0.12056826   -0.04277142    0.12699935
     atom   60 type  1   force =    -0.29199364    0.17739598   -0.13568437
     atom   61 type  2   force =     0.05694083    0.04338958    0.06316143
     atom   62 type  2   force =    -0.04031154    0.05689850   -0.07257621
     atom   63 type  2   force =    -0.00384621    0.07045909   -0.05776589
     atom   64 type  2   force =     0.03158243   -0.10603132   -0.05970139
     atom   65 type  2   force =     0.03173576    0.07589759    0.05914486
     atom   66 type  2   force =     0.06895343    0.01749285   -0.05902380
     atom   67 type  1   force =    -0.19251867    0.02864322    0.07217619
     atom   68 type  2   force =     0.00399447   -0.00469891   -0.02633002
     atom   69 type  2   force =     0.05450416   -0.09188424   -0.02920395
     atom   70 type  1   force =     0.01207382   -0.08955594   -0.02792965
     atom   71 type  2   force =     0.07450051    0.11817317    0.07098390
     atom   72 type  2   force =     0.00956974   -0.00023924    0.01216358

     Total force =     1.456385     Total SCF correction =     0.000052


     Computing stress (Cartesian axis) and pressure

          total   stress  (Ry/bohr**3)                   (kbar)     P=       93.54
   0.00072279  -0.00018542   0.00017054          106.33      -27.28       25.09
  -0.00018542   0.00045622  -0.00019259          -27.28       67.11      -28.33
   0.00017054  -0.00019259   0.00072853           25.09      -28.33      107.17


     Writing all to output data dir /n/holyscratch01/kozinsky_lab/sfalletta/QE/SiO2/SiO2-T600-Ez-0/SiO2.save/

     init_run     :      6.13s CPU      6.49s WALL (       1 calls)
     electrons    :   6666.65s CPU   7149.85s WALL (       1 calls)
     forces       :      3.08s CPU      3.10s WALL (       1 calls)
     stress       :     56.73s CPU     57.29s WALL (       1 calls)

     Called by init_run:
     wfcinit      :      3.80s CPU      3.91s WALL (       1 calls)
     potinit      :      0.25s CPU      0.27s WALL (       1 calls)
     hinit0       :      0.30s CPU      0.39s WALL (       1 calls)

     Called by electrons:
     c_bands      :    717.19s CPU    722.20s WALL (      13 calls)
     sum_band     :      7.72s CPU      7.84s WALL (      13 calls)
     v_of_rho     :      0.46s CPU      0.49s WALL (      14 calls)
     mix_rho      :      0.06s CPU      0.07s WALL (      13 calls)

     Called by c_bands:
     init_us_2    :      1.75s CPU      1.79s WALL (     232 calls)
     init_us_2:cp :      1.75s CPU      1.79s WALL (     232 calls)
     cegterg      :    712.58s CPU    717.44s WALL (     104 calls)

     Called by *egterg:
     cdiaghg      :     31.16s CPU     31.40s WALL (    1152 calls)
     h_psi        :    649.75s CPU    654.12s WALL (    1160 calls)
     g_psi        :      0.23s CPU      0.23s WALL (    1048 calls)

     Called by h_psi:
     h_psi:calbec :     23.09s CPU     23.26s WALL (    1160 calls)
     vloc_psi     :     44.31s CPU     44.85s WALL (    1160 calls)
     add_vuspsi   :     15.90s CPU     16.04s WALL (    1160 calls)

     General routines
     calbec       :     26.28s CPU     26.47s WALL (    1200 calls)
     fft          :      0.30s CPU      0.41s WALL (     190 calls)
     ffts         :      0.02s CPU      0.02s WALL (      27 calls)
     fftw         :     45.38s CPU     45.92s WALL (  167074 calls)
     interpolate  :      0.03s CPU      0.03s WALL (      14 calls)

     Parallel routines

     Electric-field routines
     h_epsi_set   :    143.45s CPU    150.20s WALL (      13 calls)
     h_epsi_apply :    565.91s CPU    569.43s WALL (    1152 calls)
     c_phase_fiel :   5797.58s CPU   6268.74s WALL (      39 calls)

     PWSCF        :      1h52m CPU      2h 0m WALL


   This run was terminated on:   0:44:53   2Feb2024            

=------------------------------------------------------------------------------=
   JOB DONE.
=------------------------------------------------------------------------------=
