
     Program PWSCF v.7.1 starts on  3Feb2024 at 11: 6:55 

     This program is part of the open-source Quantum ESPRESSO suite
     for quantum simulation of materials; please cite
         "P. Giannozzi et al., J. Phys.:Condens. Matter 21 395502 (2009);
         "P. Giannozzi et al., J. Phys.:Condens. Matter 29 465901 (2017);
         "P. Giannozzi et al., J. Chem. Phys. 152 154105 (2020);
          URL http://www.quantum-espresso.org", 
     in publications or presentations arising from this work. More details at
     http://www.quantum-espresso.org/quote

     Parallel version (MPI), running on   112 processors

     MPI processes distributed on     1 nodes
     1002082 MiB available memory on the printing compute node when the environment starts

     Reading input from /n/holyscratch01/kozinsky_lab/sfalletta/QE/SiO2/SiO2-T600-Ey-0/SiO2-scf.inp

     Current dimensions of program PWSCF are:
     Max number of different atomic species (ntypx) = 10
     Max number of k-points (npk) =  40000
     Max angular momentum in pseudopotentials (lmaxx) =  4

     IMPORTANT: XC functional enforced from input :
     Exchange-correlation= PBE
                           (   1   4   3   4   0   0   0)
     Any further DFT definition will be discarded
     Please, verify this is what you really want


     R & G space division:  proc/nbgrp/npool/nimage =     112
     Subspace diagonalization in iterative solution of the eigenvalue problem:
     one sub-group per band group will be used
     scalapack distributed-memory algorithm (size of sub-group: 10* 10 procs)


     Parallelization info
     --------------------
     sticks:   dense  smooth     PW     G-vecs:    dense   smooth      PW
     Min         174      87     23                21712     7675    1045
     Max         175      88     24                21721     7680    1049
     Sum       19575    9769   2585              2432309   859779  117343

     Using Slab Decomposition



     bravais-lattice index     =           14
     lattice parameter (alat)  =      18.8417  a.u.
     unit-cell volume          =    6365.9664 (a.u.)^3
     number of atoms/cell      =           72
     number of atomic types    =            2
     number of electrons       =       384.00
     number of Kohn-Sham states=          220
     kinetic-energy cutoff     =     100.0000  Ry
     charge density cutoff     =     800.0000  Ry
     scf convergence threshold =      1.0E-08
     mixing beta               =       0.7000
     number of iterations used =            8  plain     mixing
     Exchange-correlation= PBE
                           (   1   4   3   4   0   0   0)

     Using Berry phase electric field
     In a.u.(Ry)  cartesian system of reference
        0.0000000000
        0.0001000000
        0.0000000000
     In a.u.(Ry)  crystal system of reference
        0.0000000000
        0.0001000000
        0.0000000000
     Number of iterative cycles:   1


     celldm(1)=  18.841714  celldm(2)=   0.866025  celldm(3)=   1.098936
     celldm(4)=   0.000000  celldm(5)=   0.000000  celldm(6)=   0.000000

     crystal axes: (cart. coord. in units of alat)
               a(1) = (   1.000000   0.000000   0.000000 )  
               a(2) = (   0.000000   0.866025   0.000000 )  
               a(3) = (   0.000000   0.000000   1.098936 )  

     reciprocal axes: (cart. coord. in units 2 pi/alat)
               b(1) = (  1.000000  0.000000  0.000000 )  
               b(2) = (  0.000000  1.154701  0.000000 )  
               b(3) = (  0.000000  0.000000  0.909971 )  


     PseudoPot. # 1 for Si read from file:
     /n/holyscratch01/kozinsky_lab/sfalletta/QE/Inputs/Si.upf
     MD5 check sum: 1e49d63d1c5892e9c2567cdfc797a7ef
     Pseudo is Norm-conserving + core correction, Zval =  4.0
     Generated using ONCVPSP code by D. R. Hamann
     Using radial grid of 1510 points,  6 beta functions with: 
                l(1) =   0
                l(2) =   0
                l(3) =   1
                l(4) =   1
                l(5) =   2
                l(6) =   2

     PseudoPot. # 2 for O  read from file:
     /n/holyscratch01/kozinsky_lab/sfalletta/QE/Inputs/O.upf
     MD5 check sum: e161f86cb4953fdc9aae83e76c3f29b8
     Pseudo is Norm-conserving + core correction, Zval =  6.0
     Generated using ONCVPSP code by D. R. Hamann
     Using radial grid of  936 points,  5 beta functions with: 
                l(1) =   0
                l(2) =   0
                l(3) =   1
                l(4) =   1
                l(5) =   2

     atomic species   valence    mass     pseudopotential
        Si             4.00    28.08550     Si( 1.00)
        O              6.00    15.99900     O ( 1.00)

     No symmetry found



   Cartesian axes

     site n.     atom                  positions (alat units)
         1           Si  tau(   1) = (   0.8841790   0.2115197   0.4435277  )
         2           Si  tau(   2) = (   0.1360088   0.2222864   0.2853458  )
         3           Si  tau(   3) = (   0.2218812   0.8562469   0.0885200  )
         4           O   tau(   4) = (   0.9308211   0.2918639   0.0348738  )
         5           O   tau(   5) = (   0.0934266   0.3688612   0.2281015  )
         6           O   tau(   6) = (   0.0148497   0.1768197   0.3646007  )
         7           O   tau(   7) = (   0.1600976   0.1287525   0.1607726  )
         8           O   tau(   8) = (   0.2613913   0.2713476   0.3654823  )
         9           O   tau(   9) = (   0.3460472   0.0856930   0.5255348  )
        10           Si  tau(  10) = (   0.9033985   0.1907196   1.0162873  )
        11           Si  tau(  11) = (   0.1391701   0.2040026   0.8311631  )
        12           Si  tau(  12) = (   0.2573525   0.0056010   0.6344760  )
        13           O   tau(  13) = (   0.8968923   0.3366024   0.5409982  )
        14           O   tau(  14) = (   0.0687931   0.3117724   0.7281955  )
        15           O   tau(  15) = (   0.0248331   0.1502667   0.9275846  )
        16           O   tau(  16) = (   0.2235411   0.0567707   0.7785986  )
        17           O   tau(  17) = (   0.2659196   0.2933944   0.9161881  )
        18           O   tau(  18) = (   0.3170369   0.0743158   1.0630748  )
        19           Si  tau(  19) = (   0.8516604   0.6618735   0.2663579  )
        20           Si  tau(  20) = (   0.9944742   0.4227857   0.1061941  )
        21           O   tau(  21) = (   0.8018931   0.8022963   0.2069142  )
        22           O   tau(  22) = (   0.8974831   0.5383926   0.1567598  )
        23           O   tau(  23) = (   0.9984479   0.6938415   0.3716775  )
        24           O   tau(  24) = (   0.0809499   0.5007940   0.5494781  )
        25           Si  tau(  25) = (   0.8676133   0.6384507   0.8159685  )
        26           Si  tau(  26) = (   0.9867545   0.4246502   0.6473157  )
        27           O   tau(  27) = (   0.8422788   0.7775415   0.7234786  )
        28           O   tau(  28) = (   0.8983566   0.5249089   0.7197837  )
        29           O   tau(  29) = (   0.9673003   0.6471272   0.9456075  )
        30           O   tau(  30) = (   0.1061179   0.5000669   0.0050833  )
        31           Si  tau(  31) = (   0.3868902   0.2164432   0.4376344  )
        32           Si  tau(  32) = (   0.6446328   0.2189024   0.2674592  )
        33           Si  tau(  33) = (   0.7507768   0.0033077   0.0745000  )
        34           O   tau(  34) = (   0.4104405   0.3475095   0.0298776  )
        35           O   tau(  35) = (   0.5991050   0.3664401   0.2028683  )
        36           O   tau(  36) = (   0.5042362   0.1512355   0.3470391  )
        37           O   tau(  37) = (   0.6660508   0.1183098   0.1433965  )
        38           O   tau(  38) = (   0.7709451   0.2378180   0.3459700  )
        39           O   tau(  39) = (   0.8411716   0.0795476   0.5353827  )
        40           Si  tau(  40) = (   0.3798325   0.2447875   1.0137699  )
        41           Si  tau(  41) = (   0.6482425   0.2420906   0.8386110  )
        42           Si  tau(  42) = (   0.7591926   0.0106095   0.6424946  )
        43           O   tau(  43) = (   0.4187709   0.3316438   0.5574546  )
        44           O   tau(  44) = (   0.6234416   0.3501984   0.7148833  )
        45           O   tau(  45) = (   0.5139708   0.2139188   0.9194135  )
        46           O   tau(  46) = (   0.6861168   0.0989839   0.7499133  )
        47           O   tau(  47) = (   0.7973337   0.2544539   0.9277761  )
        48           O   tau(  48) = (   0.8519542   0.0540641   1.0663444  )
        49           Si  tau(  49) = (   0.1073626   0.6483458   0.4707929  )
        50           Si  tau(  50) = (   0.3514049   0.6648743   0.2817111  )
        51           Si  tau(  51) = (   0.5190647   0.4416472   0.1005606  )
        52           O   tau(  52) = (   0.1203748   0.7609367   0.0117073  )
        53           O   tau(  53) = (   0.2862986   0.7814600   0.1969449  )
        54           O   tau(  54) = (   0.2476810   0.6222691   0.3946360  )
        55           O   tau(  55) = (   0.4304463   0.5683416   0.1718782  )
        56           O   tau(  56) = (   0.4862312   0.6985644   0.3702934  )
        57           O   tau(  57) = (   0.5687648   0.5330479   0.5371780  )
        58           Si  tau(  58) = (   0.1019757   0.6316106   1.0197174  )
        59           Si  tau(  59) = (   0.3706355   0.6428677   0.8062178  )
        60           Si  tau(  60) = (   0.5203816   0.4265157   0.6439699  )
        61           O   tau(  61) = (   0.1274837   0.7858289   0.5587173  )
        62           O   tau(  62) = (   0.3606692   0.7487659   0.6915106  )
        63           O   tau(  63) = (   0.2350760   0.5985564   0.9173585  )
        64           O   tau(  64) = (   0.4236122   0.5054708   0.7534116  )
        65           O   tau(  65) = (   0.4768336   0.6816356   0.9158240  )
        66           O   tau(  66) = (   0.5951865   0.5237415   1.0898234  )
        67           Si  tau(  67) = (   0.6196885   0.6595226   0.4531891  )
        68           O   tau(  68) = (   0.6371378   0.7782235   0.0078980  )
        69           O   tau(  69) = (   0.7360536   0.6221939   0.3603382  )
        70           Si  tau(  70) = (   0.6084956   0.6623429   1.0006945  )
        71           O   tau(  71) = (   0.6469426   0.7727234   0.5580674  )
        72           O   tau(  72) = (   0.7217676   0.6221518   0.8881807  )

     number of k points=     8
                       cart. coord. in units 2pi/alat
        k(    1) = (   0.0000000   0.0000000   0.0000000), wk =   0.2500000
        k(    2) = (   0.0000000   0.0000000   0.4549855), wk =   0.2500000
        k(    3) = (   0.0000000   0.5773503   0.0000000), wk =   0.2500000
        k(    4) = (   0.0000000   0.5773503   0.4549855), wk =   0.2500000
        k(    5) = (   0.5000000   0.0000000   0.0000000), wk =   0.2500000
        k(    6) = (   0.5000000   0.0000000   0.4549855), wk =   0.2500000
        k(    7) = (   0.5000000   0.5773503   0.0000000), wk =   0.2500000
        k(    8) = (   0.5000000   0.5773503   0.4549855), wk =   0.2500000

     Dense  grid:  2432309 G-vectors     FFT dimensions: ( 180, 150, 192)

     Smooth grid:   859779 G-vectors     FFT dimensions: ( 120, 108, 135)

     Estimated max dynamical RAM per process >      78.77 MB

     Estimated total dynamical RAM >       8.62 GB

     Initial potential from superposition of free atoms

     starting charge     383.9851, renormalised to     384.0000
     Starting wfcs are  288 randomized atomic wfcs

     total cpu time spent up to now is        7.1 secs

     Self-consistent Calculation

     iteration #  1     ecut=   100.00 Ry     beta= 0.70
     Davidson diagonalization with overlap
     ethr =  1.00E-02,  avg # of iterations =  3.0

     Expectation value of exp(iGx):   (7.30457295136053703E-002,2.86051537379567698E-002)   1.0000000000000000     
     Electronic Dipole per cell (Ry a.u.)   3.1658084876483059     
     Ionic Dipole per cell (Ry a.u.)   5220.7307615604614     

     Expectation value of exp(iGx):   (1.24841104583360875E-002,3.06956400001536303E-002)  0.86602540378443849     
     Electronic Dipole per cell (Ry a.u.)   8.7008027047955139     
     Ionic Dipole per cell (Ry a.u.)   4333.8671907424050     

     Expectation value of exp(iGx):       (0.12000689942326133,-3.93649339291519962E-003)   1.0989361747729789     
     Electronic Dipole per cell (Ry a.u.) -0.30563678897662183     
     Ionic Dipole per cell (Ry a.u.)   5446.6758445586356     
Electronic Dipole on Cartesian axes
           1   3.1658084876483059     
           2   8.7008027047955139     
           3 -0.30563678897662183     
Ionic Dipole on Cartesian axes
           1   5220.7307615604614     
           2   4333.8671907424050     
           3   5446.6758445586356     

     total cpu time spent up to now is     1063.1 secs

     total energy              =   -1789.03734971 Ry
     estimated scf accuracy    <      19.87210315 Ry

     iteration #  2     ecut=   100.00 Ry     beta= 0.70
     Davidson diagonalization with overlap
     ethr =  5.18E-03,  avg # of iterations =  8.9

     Expectation value of exp(iGx):   (2.28310648915817788E-002,9.11924866719677173E-003)   1.0000000000000000     
     Electronic Dipole per cell (Ry a.u.)   3.2231395121800013     
     Ionic Dipole per cell (Ry a.u.)   5220.7307615604614     

     Expectation value of exp(iGx):   (3.94616314272118462E-003,5.81317848875836148E-003)  0.86602540378443849     
     Electronic Dipole per cell (Ry a.u.)   7.1575149470271393     
     Ionic Dipole per cell (Ry a.u.)   4333.8671907424050     

     Expectation value of exp(iGx):  (4.54109740354510030E-002,-2.84939117432039194E-004)   1.0989361747729789     
     Electronic Dipole per cell (Ry a.u.)  -5.8484875123869649E-002
     Ionic Dipole per cell (Ry a.u.)   5446.6758445586356     
Electronic Dipole on Cartesian axes
           1   3.2231395121800013     
           2   7.1575149470271393     
           3  -5.8484875123869649E-002
Ionic Dipole on Cartesian axes
           1   5220.7307615604614     
           2   4333.8671907424050     
           3   5446.6758445586356     

     total cpu time spent up to now is     2171.6 secs

     total energy              =   -1795.12769066 Ry
     estimated scf accuracy    <      11.65989326 Ry

     iteration #  3     ecut=   100.00 Ry     beta= 0.70
     Davidson diagonalization with overlap
     ethr =  3.04E-03,  avg # of iterations =  2.4

     Expectation value of exp(iGx):   (3.96783900043802124E-002,1.38120039349575001E-002)   1.0000000000000000     
     Electronic Dipole per cell (Ry a.u.)   2.8412186680338034     
     Ionic Dipole per cell (Ry a.u.)   5220.7307615604614     

     Expectation value of exp(iGx):   (6.03058898512240892E-003,1.29849266071782252E-002)  0.86602540378443849     
     Electronic Dipole per cell (Ry a.u.)   8.3444429612975100     
     Ionic Dipole per cell (Ry a.u.)   4333.8671907424050     

     Expectation value of exp(iGx):  (7.09753275602190148E-002,-3.08178068006119930E-003)   1.0989361747729789     
     Electronic Dipole per cell (Ry a.u.) -0.40446376864746969     
     Ionic Dipole per cell (Ry a.u.)   5446.6758445586356     
Electronic Dipole on Cartesian axes
           1   2.8412186680338034     
           2   8.3444429612975100     
           3 -0.40446376864746969     
Ionic Dipole on Cartesian axes
           1   5220.7307615604614     
           2   4333.8671907424050     
           3   5446.6758445586356     

     total cpu time spent up to now is     3224.2 secs

     total energy              =   -1797.08125135 Ry
     estimated scf accuracy    <       0.19942950 Ry

     iteration #  4     ecut=   100.00 Ry     beta= 0.70
     Davidson diagonalization with overlap
     ethr =  5.19E-05,  avg # of iterations = 14.4

     Expectation value of exp(iGx):   (4.16920300029954560E-002,1.62872270768488446E-002)   1.0000000000000000     
     Electronic Dipole per cell (Ry a.u.)   3.1588165940057804     
     Ionic Dipole per cell (Ry a.u.)   5220.7307615604614     

     Expectation value of exp(iGx):   (7.41981533688208100E-003,1.37264284542143074E-002)  0.86602540378443849     
     Electronic Dipole per cell (Ry a.u.)   7.8980637086597101     
     Ionic Dipole per cell (Ry a.u.)   4333.8671907424050     

     Expectation value of exp(iGx):  (7.50982360644843888E-002,-1.94286873643510316E-003)   1.0989361747729789     
     Electronic Dipole per cell (Ry a.u.) -0.24108759697224075     
     Ionic Dipole per cell (Ry a.u.)   5446.6758445586356     
Electronic Dipole on Cartesian axes
           1   3.1588165940057804     
           2   7.8980637086597101     
           3 -0.24108759697224075     
Ionic Dipole on Cartesian axes
           1   5220.7307615604614     
           2   4333.8671907424050     
           3   5446.6758445586356     

     total cpu time spent up to now is     4339.8 secs

     total energy              =   -1797.17469724 Ry
     estimated scf accuracy    <       0.09338165 Ry

     iteration #  5     ecut=   100.00 Ry     beta= 0.70
     Davidson diagonalization with overlap
     ethr =  2.43E-05,  avg # of iterations = 12.0

     Expectation value of exp(iGx):   (4.21151779895394610E-002,1.57606374808125053E-002)   1.0000000000000000     
     Electronic Dipole per cell (Ry a.u.)   3.0372542397742159     
     Ionic Dipole per cell (Ry a.u.)   5220.7307615604614     

     Expectation value of exp(iGx):   (6.87533528267349116E-003,1.41068940363810267E-002)  0.86602540378443849     
     Electronic Dipole per cell (Ry a.u.)   8.2070314692117474     
     Ionic Dipole per cell (Ry a.u.)   4333.8671907424050     

     Expectation value of exp(iGx):  (7.53120949482043583E-002,-2.42499170235137328E-003)   1.0989361747729789     
     Electronic Dipole per cell (Ry a.u.) -0.30002228474670845     
     Ionic Dipole per cell (Ry a.u.)   5446.6758445586356     
Electronic Dipole on Cartesian axes
           1   3.0372542397742159     
           2   8.2070314692117474     
           3 -0.30002228474670845     
Ionic Dipole on Cartesian axes
           1   5220.7307615604614     
           2   4333.8671907424050     
           3   5446.6758445586356     

     total cpu time spent up to now is     5437.0 secs

     total energy              =   -1797.18252715 Ry
     estimated scf accuracy    <       0.02300518 Ry

     iteration #  6     ecut=   100.00 Ry     beta= 0.70
     Davidson diagonalization with overlap
     ethr =  5.99E-06,  avg # of iterations =  6.5

     Expectation value of exp(iGx):   (4.17489862987601920E-002,1.56553266037685115E-002)   1.0000000000000000     
     Electronic Dipole per cell (Ry a.u.)   3.0429068737999292     
     Ionic Dipole per cell (Ry a.u.)   5220.7307615604614     

     Expectation value of exp(iGx):   (6.96566480807035183E-003,1.38566385370579390E-002)  0.86602540378443849     
     Electronic Dipole per cell (Ry a.u.)   8.1166432463657827     
     Ionic Dipole per cell (Ry a.u.)   4333.8671907424050     

     Expectation value of exp(iGx):  (7.47632327231733673E-002,-2.39335391575002006E-003)   1.0989361747729789     
     Electronic Dipole per cell (Ry a.u.) -0.29828304846427672     
     Ionic Dipole per cell (Ry a.u.)   5446.6758445586356     
Electronic Dipole on Cartesian axes
           1   3.0429068737999292     
           2   8.1166432463657827     
           3 -0.29828304846427672     
Ionic Dipole on Cartesian axes
           1   5220.7307615604614     
           2   4333.8671907424050     
           3   5446.6758445586356     

     total cpu time spent up to now is     6467.7 secs

     total energy              =   -1797.18229818 Ry
     estimated scf accuracy    <       0.00530687 Ry

     iteration #  7     ecut=   100.00 Ry     beta= 0.70
     Davidson diagonalization with overlap
     ethr =  1.38E-06,  avg # of iterations =  8.6

     Expectation value of exp(iGx):   (4.14363700283422662E-002,1.54974124397580793E-002)   1.0000000000000000     
     Electronic Dipole per cell (Ry a.u.)   3.0356028557118901     
     Ionic Dipole per cell (Ry a.u.)   5220.7307615604614     

     Expectation value of exp(iGx):   (6.86597812628321653E-003,1.37266153070826971E-002)  0.86602540378443849     
     Electronic Dipole per cell (Ry a.u.)   8.1313205466960135     
     Ionic Dipole per cell (Ry a.u.)   4333.8671907424050     

     Expectation value of exp(iGx):  (7.42698273613229404E-002,-2.34193681141985034E-003)   1.0989361747729789     
     Electronic Dipole per cell (Ry a.u.) -0.29381697780816629     
     Ionic Dipole per cell (Ry a.u.)   5446.6758445586356     
Electronic Dipole on Cartesian axes
           1   3.0356028557118901     
           2   8.1313205466960135     
           3 -0.29381697780816629     
Ionic Dipole on Cartesian axes
           1   5220.7307615604614     
           2   4333.8671907424050     
           3   5446.6758445586356     

     total cpu time spent up to now is     7570.3 secs

     total energy              =   -1797.18302207 Ry
     estimated scf accuracy    <       0.00035059 Ry

     iteration #  8     ecut=   100.00 Ry     beta= 0.70
     Davidson diagonalization with overlap
     c_bands:  1 eigenvalues not converged
     ethr =  9.13E-08,  avg # of iterations = 15.5

     Expectation value of exp(iGx):   (4.13171542603113021E-002,1.54589317103510059E-002)   1.0000000000000000     
     Electronic Dipole per cell (Ry a.u.)   3.0367025513806540     
     Ionic Dipole per cell (Ry a.u.)   5220.7307615604614     

     Expectation value of exp(iGx):   (6.86573756678482590E-003,1.36591581833044283E-002)  0.86602540378443849     
     Electronic Dipole per cell (Ry a.u.)   8.1169243586263224     
     Ionic Dipole per cell (Ry a.u.)   4333.8671907424050     

     Expectation value of exp(iGx):  (7.40891890410250442E-002,-2.35744916858963722E-003)   1.0989361747729789     
     Electronic Dipole per cell (Ry a.u.) -0.29648245746069085     
     Ionic Dipole per cell (Ry a.u.)   5446.6758445586356     
Electronic Dipole on Cartesian axes
           1   3.0367025513806540     
           2   8.1169243586263224     
           3 -0.29648245746069085     
Ionic Dipole on Cartesian axes
           1   5220.7307615604614     
           2   4333.8671907424050     
           3   5446.6758445586356     

     total cpu time spent up to now is     8634.7 secs

     total energy              =   -1797.18314583 Ry
     estimated scf accuracy    <       0.00003553 Ry

     iteration #  9     ecut=   100.00 Ry     beta= 0.70
     Davidson diagonalization with overlap
     ethr =  9.25E-09,  avg # of iterations =  8.9

     Expectation value of exp(iGx):   (4.13326765365715498E-002,1.54589252062439092E-002)   1.0000000000000000     
     Electronic Dipole per cell (Ry a.u.)   3.0356559014200308     
     Ionic Dipole per cell (Ry a.u.)   5220.7307615604614     

     Expectation value of exp(iGx):   (6.86384518631082303E-003,1.36687693952583685E-002)  0.86602540378443849     
     Electronic Dipole per cell (Ry a.u.)   8.1198092674791287     
     Ionic Dipole per cell (Ry a.u.)   4333.8671907424050     

     Expectation value of exp(iGx):  (7.41112084407609256E-002,-2.34980820711158493E-003)   1.0989361747729789     
     Electronic Dipole per cell (Ry a.u.) -0.29543439911911795     
     Ionic Dipole per cell (Ry a.u.)   5446.6758445586356     
Electronic Dipole on Cartesian axes
           1   3.0356559014200308     
           2   8.1198092674791287     
           3 -0.29543439911911795     
Ionic Dipole on Cartesian axes
           1   5220.7307615604614     
           2   4333.8671907424050     
           3   5446.6758445586356     

     total cpu time spent up to now is     9735.2 secs

     total energy              =   -1797.18315312 Ry
     estimated scf accuracy    <       0.00000467 Ry

     iteration # 10     ecut=   100.00 Ry     beta= 0.70
     Davidson diagonalization with overlap
     ethr =  1.22E-09,  avg # of iterations = 14.2

     Expectation value of exp(iGx):   (4.13392546161915966E-002,1.54621513322206489E-002)   1.0000000000000000     
     Electronic Dipole per cell (Ry a.u.)   3.0357937491003755     
     Ionic Dipole per cell (Ry a.u.)   5220.7307615604614     

     Expectation value of exp(iGx):   (6.86268301931701463E-003,1.36727758804261780E-002)  0.86602540378443849     
     Electronic Dipole per cell (Ry a.u.)   8.1211711923346339     
     Ionic Dipole per cell (Ry a.u.)   4333.8671907424050     

     Expectation value of exp(iGx):  (7.41206940550264565E-002,-2.35341092843956937E-003)   1.0989361747729789     
     Electronic Dipole per cell (Ry a.u.) -0.29584921376149259     
     Ionic Dipole per cell (Ry a.u.)   5446.6758445586356     
Electronic Dipole on Cartesian axes
           1   3.0357937491003755     
           2   8.1211711923346339     
           3 -0.29584921376149259     
Ionic Dipole on Cartesian axes
           1   5220.7307615604614     
           2   4333.8671907424050     
           3   5446.6758445586356     

     total cpu time spent up to now is    10833.5 secs

     total energy              =   -1797.18315343 Ry
     estimated scf accuracy    <       0.00000067 Ry

     iteration # 11     ecut=   100.00 Ry     beta= 0.70
     Davidson diagonalization with overlap
     c_bands:  1 eigenvalues not converged
     ethr =  1.74E-10,  avg # of iterations = 10.5

     Expectation value of exp(iGx):   (4.13441428389042590E-002,1.54641628257072648E-002)   1.0000000000000000     
     Electronic Dipole per cell (Ry a.u.)   3.0358267105835512     
     Ionic Dipole per cell (Ry a.u.)   5220.7307615604614     

     Expectation value of exp(iGx):   (6.86422644169596731E-003,1.36747951708615905E-002)  0.86602540378443849     
     Electronic Dipole per cell (Ry a.u.)   8.1209438405292484     
     Ionic Dipole per cell (Ry a.u.)   4333.8671907424050     

     Expectation value of exp(iGx):  (7.41281516360116355E-002,-2.35358643822752584E-003)   1.0989361747729789     
     Electronic Dipole per cell (Ry a.u.) -0.29584151660876407     
     Ionic Dipole per cell (Ry a.u.)   5446.6758445586356     
Electronic Dipole on Cartesian axes
           1   3.0358267105835512     
           2   8.1209438405292484     
           3 -0.29584151660876407     
Ionic Dipole on Cartesian axes
           1   5220.7307615604614     
           2   4333.8671907424050     
           3   5446.6758445586356     

     total cpu time spent up to now is    11878.3 secs

     total energy              =   -1797.18315347 Ry
     estimated scf accuracy    <       0.00000005 Ry

     iteration # 12     ecut=   100.00 Ry     beta= 0.70
     Davidson diagonalization with overlap
     c_bands:  1 eigenvalues not converged
     c_bands:  1 eigenvalues not converged
     c_bands:  1 eigenvalues not converged
     c_bands:  1 eigenvalues not converged
     ethr =  1.24E-11,  avg # of iterations = 19.6

     Expectation value of exp(iGx):   (4.13448301502123763E-002,1.54643239067766610E-002)   1.0000000000000000     
     Electronic Dipole per cell (Ry a.u.)   3.0358094340324251     
     Ionic Dipole per cell (Ry a.u.)   5220.7307615604614     

     Expectation value of exp(iGx):   (6.86420240508316300E-003,1.36751832922677868E-002)  0.86602540378443849     
     Electronic Dipole per cell (Ry a.u.)   8.1210377387405099     
     Ionic Dipole per cell (Ry a.u.)   4333.8671907424050     

     Expectation value of exp(iGx):  (7.41292384127029969E-002,-2.35321570997581216E-003)   1.0989361747729789     
     Electronic Dipole per cell (Ry a.u.) -0.29579061441652155     
     Ionic Dipole per cell (Ry a.u.)   5446.6758445586356     
Electronic Dipole on Cartesian axes
           1   3.0358094340324251     
           2   8.1210377387405099     
           3 -0.29579061441652155     
Ionic Dipole on Cartesian axes
           1   5220.7307615604614     
           2   4333.8671907424050     
           3   5446.6758445586356     

     total cpu time spent up to now is    12981.8 secs

     total energy              =   -1797.18315351 Ry
     estimated scf accuracy    <       0.00000002 Ry

     iteration # 13     ecut=   100.00 Ry     beta= 0.70
     Davidson diagonalization with overlap
     ethr =  5.00E-12,  avg # of iterations =  5.6

     Expectation value of exp(iGx):   (4.13443963767501019E-002,1.54641486468919346E-002)   1.0000000000000000     
     Electronic Dipole per cell (Ry a.u.)   3.0358070918266273     
     Ionic Dipole per cell (Ry a.u.)   5220.7307615604614     

     Expectation value of exp(iGx):   (6.86416148682044477E-003,1.36749564166134992E-002)  0.86602540378443849     
     Electronic Dipole per cell (Ry a.u.)   8.1210064352001687     
     Ionic Dipole per cell (Ry a.u.)   4333.8671907424050     

     Expectation value of exp(iGx):  (7.41285641009281626E-002,-2.35334332068347710E-003)   1.0989361747729789     
     Electronic Dipole per cell (Ry a.u.) -0.29580933285239536     
     Ionic Dipole per cell (Ry a.u.)   5446.6758445586356     
Electronic Dipole on Cartesian axes
           1   3.0358070918266273     
           2   8.1210064352001687     
           3 -0.29580933285239536     
Ionic Dipole on Cartesian axes
           1   5220.7307615604614     
           2   4333.8671907424050     
           3   5446.6758445586356     

     total cpu time spent up to now is    14022.1 secs

     End of self-consistent calculation

          k = 0.0000 0.0000 0.0000 (107453 PWs)   bands (ev):

   -17.9841 -17.7254 -17.6494 -17.2941 -17.1772 -17.0417 -17.0116 -16.8723
   -16.7855 -16.6624 -16.5565 -16.4687 -16.3932 -16.2409 -16.2257 -16.1511
   -16.1153 -16.0756 -15.8979 -15.8557 -15.7866 -15.6887 -15.6311 -15.5781
   -15.5250 -15.4607 -15.3988 -15.3123 -15.2084 -15.1767 -15.0985 -15.0725
   -15.0490 -14.9911 -14.9293 -14.8711 -14.7959 -14.6273 -14.5848 -14.5087
   -14.4908 -14.3735 -14.2312 -14.2110 -14.0613 -13.6141 -13.1818 -12.9785
    -7.6817  -7.0201  -6.9081  -6.5640  -6.5193  -6.2949  -6.2238  -6.1220
    -5.9595  -5.5913  -5.4212  -5.3271  -5.2526  -5.0983  -5.0889  -4.6492
    -4.6262  -4.4664  -4.3758  -4.1911  -4.0907  -3.9723  -3.9610  -3.8695
    -3.7888  -3.6602  -3.6040  -3.4574  -3.4457  -3.3782  -3.3057  -3.2109
    -3.1678  -3.0954  -3.0740  -2.9994  -2.8919  -2.8198  -2.7036  -2.5941
    -2.5573  -2.4953  -2.3864  -2.2749  -2.1751  -2.0152  -1.9071  -1.7471
    -1.6945  -1.5357  -1.4670  -1.3984  -1.3864  -1.2717  -1.2020  -1.1573
    -1.1543  -1.0707  -1.0268  -1.0062  -0.9112  -0.8904  -0.8465  -0.8191
    -0.7765  -0.7332  -0.7091  -0.6537  -0.6333  -0.5274  -0.4852  -0.3920
    -0.3672  -0.3254  -0.2543  -0.2112  -0.1589  -0.1476  -0.0378  -0.0248
     0.0085   0.0265   0.0519   0.1013   0.1138   0.1691   0.2300   0.2407
     0.2519   0.2888   0.3389   0.3560   0.4277   0.4663   0.4756   0.5585
     0.5793   0.6162   0.6551   0.6750   0.7309   0.7595   0.8310   0.8510
     0.8894   0.9632   0.9734   1.0075   1.0302   1.0857   1.1273   1.1812
     1.1980   1.2297   1.2912   1.3400   1.3652   1.4365   1.4812   1.5106
     1.5734   1.6022   1.6287   1.6874   1.7086   1.7855   1.8211   1.8697
     1.9468   2.0206   2.0682   2.0841   2.1258   2.1690   2.2659   2.3180
     2.4639   2.6158   2.7655   2.8008   2.9024   2.9880   3.0349   3.1591
     7.4912   8.6186   8.8431   9.1667   9.5576   9.6513   9.6953  10.1122
    10.1950  10.2629  10.4388  10.4607  10.5693  10.6482  10.7455  10.7992
    10.8021  10.9041  10.9661  11.0115  11.0540  11.1615  11.1948  11.3526
    11.4374  11.5059  11.5511  11.6073

          k = 0.0000 0.0000 0.4550 (107410 PWs)   bands (ev):

   -17.9759 -17.7534 -17.6310 -17.3025 -17.1820 -17.0404 -16.9761 -16.8769
   -16.8137 -16.6327 -16.5663 -16.4787 -16.3528 -16.2480 -16.2234 -16.1631
   -16.1454 -16.0883 -15.9475 -15.8214 -15.7641 -15.6862 -15.6228 -15.5756
   -15.4966 -15.4813 -15.4224 -15.2687 -15.2311 -15.1958 -15.0971 -15.0543
   -15.0208 -14.9799 -14.9478 -14.8936 -14.7982 -14.6379 -14.5898 -14.5093
   -14.4829 -14.3680 -14.2280 -14.2120 -14.0594 -13.6174 -13.1822 -12.9786
    -7.5361  -7.2821  -6.8193  -6.7285  -6.4809  -6.3431  -6.1507  -5.9636
    -5.8974  -5.5680  -5.5113  -5.2893  -5.2143  -5.0430  -5.0036  -4.9192
    -4.6261  -4.5295  -4.2873  -4.1987  -4.1012  -4.0780  -3.9846  -3.8730
    -3.7080  -3.6232  -3.5436  -3.4832  -3.4452  -3.3598  -3.3231  -3.1822
    -3.1658  -3.1357  -3.0641  -2.9665  -2.9105  -2.7937  -2.6639  -2.6498
    -2.5993  -2.4750  -2.4170  -2.2272  -2.1575  -2.0346  -1.9029  -1.7591
    -1.6549  -1.6081  -1.4884  -1.4002  -1.3840  -1.2812  -1.2163  -1.1684
    -1.1124  -1.0447  -1.0031  -0.9865  -0.9555  -0.9135  -0.8750  -0.8260
    -0.8217  -0.7351  -0.7105  -0.6154  -0.5555  -0.5332  -0.4754  -0.4160
    -0.3929  -0.3142  -0.2990  -0.1907  -0.1282  -0.1017  -0.0520   0.0050
     0.0154   0.0355   0.0697   0.0830   0.1540   0.1662   0.1992   0.2540
     0.3018   0.3364   0.3756   0.3943   0.4097   0.4364   0.4597   0.5198
     0.5498   0.6203   0.6454   0.6800   0.6997   0.7160   0.7905   0.8562
     0.8766   0.9278   0.9446   0.9981   1.0556   1.1219   1.1323   1.1666
     1.2244   1.2791   1.3073   1.3247   1.3731   1.4190   1.4601   1.5020
     1.5255   1.5712   1.6553   1.6606   1.7289   1.7816   1.8251   1.8598
     1.9358   1.9918   2.0889   2.0924   2.1854   2.2002   2.2493   2.3743
     2.4554   2.5875   2.7530   2.8132   2.8932   2.9835   3.0286   3.1574
     7.8797   8.0567   8.8347   9.1943   9.5574   9.6568   9.7553  10.1550
    10.2680  10.3270  10.3951  10.4175  10.5070  10.6436  10.7220  10.7498
    10.8234  10.8852  10.9433  11.0243  11.1001  11.1672  11.2279  11.2512
    11.4341  11.4694  11.4986  11.6391

          k = 0.0000 0.5774 0.0000 (107384 PWs)   bands (ev):

   -17.9719 -17.7296 -17.6392 -17.3476 -17.1632 -17.0249 -16.9932 -16.8683
   -16.8318 -16.6761 -16.5648 -16.4334 -16.3480 -16.3012 -16.2095 -16.1636
   -16.1301 -16.0287 -15.8845 -15.8736 -15.7939 -15.6625 -15.6318 -15.5701
   -15.4948 -15.4910 -15.4124 -15.2868 -15.2584 -15.1996 -15.1401 -15.0295
   -14.9963 -14.9695 -14.9003 -14.8830 -14.8209 -14.6353 -14.5639 -14.5231
   -14.4944 -14.3835 -14.2430 -14.2217 -14.0624 -13.6155 -13.1802 -12.9801
    -7.4846  -7.1108  -6.8920  -6.8252  -6.4664  -6.3201  -6.1582  -5.9934
    -5.8962  -5.8202  -5.5273  -5.3970  -5.1964  -5.0869  -4.8910  -4.8126
    -4.5049  -4.4548  -4.3723  -4.2369  -4.0746  -4.0104  -3.8879  -3.7910
    -3.7542  -3.6460  -3.6277  -3.5232  -3.3785  -3.3712  -3.2874  -3.2455
    -3.1416  -3.1197  -3.0430  -2.9451  -2.9385  -2.8227  -2.7211  -2.6487
    -2.5394  -2.4642  -2.4325  -2.3059  -2.1699  -2.0159  -1.8680  -1.7808
    -1.6861  -1.5327  -1.4690  -1.4276  -1.4092  -1.3358  -1.1790  -1.1503
    -1.1372  -1.0777  -1.0400  -1.0114  -0.9580  -0.8830  -0.8564  -0.8108
    -0.7519  -0.7117  -0.6605  -0.5886  -0.5652  -0.5496  -0.4523  -0.4277
    -0.3593  -0.3464  -0.3052  -0.2506  -0.1762  -0.1427  -0.1045  -0.0677
     0.0139   0.0425   0.0611   0.1122   0.1322   0.1549   0.1965   0.2785
     0.3162   0.3236   0.3763   0.3824   0.4378   0.4572   0.4884   0.5325
     0.5600   0.5660   0.6434   0.6958   0.7155   0.7824   0.7990   0.8247
     0.8813   0.9490   0.9680   1.0004   1.0634   1.0972   1.1428   1.1599
     1.2289   1.2603   1.3111   1.3275   1.3498   1.4125   1.4647   1.5168
     1.5369   1.5840   1.6057   1.6703   1.7690   1.7950   1.8394   1.8518
     1.9329   1.9835   2.0444   2.0606   2.1817   2.2176   2.3035   2.3141
     2.4858   2.5866   2.7887   2.8103   2.8965   2.9588   3.0271   3.1583
     8.0198   8.4004   8.7453   9.1518   9.4024   9.5103   9.7403   9.9419
    10.1142  10.3044  10.3790  10.4849  10.5557  10.6232  10.7471  10.8016
    10.8817  10.9060  10.9928  11.1138  11.1396  11.1883  11.2259  11.2740
    11.3898  11.4994  11.5485  11.6110

          k = 0.0000 0.5774 0.4550 (107468 PWs)   bands (ev):

   -17.9683 -17.7353 -17.6396 -17.3437 -17.1625 -17.0507 -16.9985 -16.8704
   -16.8010 -16.6511 -16.5457 -16.4628 -16.3360 -16.2533 -16.2451 -16.1939
   -16.1677 -16.0288 -15.9399 -15.8084 -15.7794 -15.6667 -15.6254 -15.5711
   -15.5103 -15.4700 -15.3722 -15.3158 -15.2786 -15.1987 -15.1050 -15.0469
   -14.9981 -14.9760 -14.9049 -14.8924 -14.8112 -14.6353 -14.5751 -14.5183
   -14.4926 -14.3796 -14.2475 -14.2151 -14.0605 -13.6180 -13.1803 -12.9802
    -7.4360  -7.1103  -6.9464  -6.8406  -6.4984  -6.4116  -6.1579  -6.0390
    -5.7973  -5.6407  -5.4863  -5.2356  -5.1878  -5.0789  -5.0406  -5.0136
    -4.6145  -4.4547  -4.3113  -4.1403  -4.0502  -4.0268  -3.9754  -3.8566
    -3.7510  -3.6402  -3.5132  -3.4709  -3.3840  -3.3136  -3.2801  -3.2428
    -3.2315  -3.1377  -3.0675  -2.9830  -2.8914  -2.7736  -2.6880  -2.6766
    -2.5561  -2.5223  -2.4546  -2.1647  -2.1351  -2.0567  -1.9327  -1.8115
    -1.6032  -1.5654  -1.4780  -1.4531  -1.4135  -1.3071  -1.2252  -1.1682
    -1.1376  -1.0803  -1.0407  -0.9894  -0.9331  -0.8946  -0.8172  -0.7643
    -0.7350  -0.7103  -0.6896  -0.6413  -0.5815  -0.5344  -0.5076  -0.4625
    -0.3618  -0.2690  -0.2666  -0.2377  -0.1830  -0.1618  -0.0837  -0.0466
    -0.0219   0.0164   0.0539   0.1265   0.1347   0.1889   0.2242   0.2788
     0.2917   0.3426   0.3711   0.3972   0.4411   0.4636   0.4744   0.5187
     0.5631   0.5773   0.6144   0.6561   0.7008   0.7644   0.8249   0.8492
     0.8819   0.9156   0.9686   0.9968   1.0350   1.0906   1.1194   1.1810
     1.2262   1.2500   1.3207   1.3296   1.3810   1.4251   1.4931   1.5030
     1.5602   1.5831   1.6236   1.6462   1.7347   1.7878   1.8463   1.8668
     1.9302   1.9622   2.0447   2.1217   2.1689   2.2247   2.2613   2.3473
     2.4975   2.5543   2.8031   2.8251   2.8685   2.9516   3.0263   3.1691
     8.1782   8.5663   8.6475   8.9120   9.0333   9.6819   9.8332  10.0192
    10.1027  10.3071  10.3693  10.4188  10.5585  10.6382  10.6792  10.7432
    10.8568  10.8767  10.9820  11.1033  11.1755  11.1989  11.2605  11.3272
    11.4094  11.5659  11.5772  11.6090

          k = 0.5000 0.0000 0.0000 (107420 PWs)   bands (ev):

   -17.9769 -17.7249 -17.6478 -17.3027 -17.2129 -17.0455 -17.0132 -16.8734
   -16.7589 -16.6553 -16.4960 -16.4373 -16.4057 -16.3156 -16.1967 -16.1612
   -16.1339 -16.0791 -15.9010 -15.8610 -15.8117 -15.6930 -15.6404 -15.5405
   -15.5121 -15.4545 -15.4058 -15.2699 -15.2426 -15.1520 -15.1019 -15.0950
   -15.0223 -14.9956 -14.9301 -14.8753 -14.8011 -14.6278 -14.5803 -14.5154
   -14.4980 -14.3768 -14.2320 -14.2110 -14.0619 -13.6148 -13.1868 -12.9785
    -7.5747  -7.0036  -6.9668  -6.6866  -6.4786  -6.4339  -6.2346  -6.1127
    -5.7646  -5.6499  -5.4558  -5.3967  -5.0969  -5.0399  -4.8434  -4.7401
    -4.6517  -4.5128  -4.4610  -4.3009  -4.2597  -4.0271  -3.9526  -3.7993
    -3.7543  -3.6238  -3.5535  -3.4558  -3.4237  -3.3499  -3.2925  -3.2666
    -3.1723  -3.1418  -3.0180  -2.9882  -2.9132  -2.7935  -2.6614  -2.5742
    -2.5457  -2.4810  -2.4107  -2.2962  -2.1971  -2.1085  -1.8910  -1.7179
    -1.6475  -1.5566  -1.4702  -1.3900  -1.3638  -1.2554  -1.1949  -1.1564
    -1.1305  -1.0604  -1.0119  -0.9898  -0.9384  -0.9204  -0.8767  -0.8306
    -0.8104  -0.7621  -0.6924  -0.6362  -0.6138  -0.5615  -0.5091  -0.4443
    -0.3337  -0.2727  -0.2601  -0.2213  -0.1185  -0.1102  -0.0623  -0.0388
     0.0071   0.0381   0.1183   0.1326   0.1515   0.1826   0.1902   0.2032
     0.2502   0.3041   0.3526   0.3747   0.4119   0.4527   0.5224   0.5312
     0.5814   0.5988   0.6378   0.6667   0.6962   0.7386   0.8108   0.8448
     0.9018   0.9144   0.9850   1.0016   1.0501   1.0633   1.1127   1.1641
     1.2242   1.2449   1.3028   1.3389   1.3961   1.4319   1.4810   1.5169
     1.5468   1.5714   1.6709   1.6924   1.7373   1.7868   1.8113   1.8655
     1.9431   2.0092   2.0592   2.0984   2.1631   2.1911   2.2627   2.3593
     2.4647   2.6088   2.7698   2.7974   2.8832   2.9562   2.9912   3.1521
     7.8927   8.1854   8.8335   9.2062   9.4422   9.6879   9.8223  10.0447
    10.1377  10.1871  10.3715  10.4506  10.6393  10.6516  10.7025  10.8042
    10.8672  10.9141  10.9721  11.0014  11.1600  11.1799  11.2935  11.3755
    11.4350  11.4998  11.5157  11.5844

          k = 0.5000 0.0000 0.4550 (107560 PWs)   bands (ev):

   -17.9693 -17.7517 -17.6294 -17.3059 -17.2166 -17.0480 -17.0070 -16.8569
   -16.7733 -16.6345 -16.4933 -16.4826 -16.3579 -16.2689 -16.2259 -16.2019
   -16.1496 -16.0938 -15.9458 -15.8447 -15.7532 -15.6746 -15.6166 -15.5787
   -15.5093 -15.4445 -15.4351 -15.2804 -15.2172 -15.1719 -15.0830 -15.0650
   -15.0366 -14.9778 -14.9403 -14.8954 -14.7995 -14.6490 -14.5795 -14.5210
   -14.4942 -14.3648 -14.2281 -14.2108 -14.0595 -13.6184 -13.1869 -12.9785
    -7.4768  -7.2056  -6.8037  -6.7106  -6.6525  -6.4895  -6.2210  -5.9880
    -5.7175  -5.4942  -5.3524  -5.2897  -5.1727  -5.1121  -5.0336  -4.8926
    -4.6668  -4.5410  -4.4483  -4.2229  -4.0880  -4.0371  -3.9895  -3.8680
    -3.7108  -3.6869  -3.5596  -3.5176  -3.4048  -3.3408  -3.2491  -3.2185
    -3.1784  -3.0873  -3.0265  -2.9539  -2.8964  -2.7929  -2.6994  -2.5934
    -2.5771  -2.5044  -2.4772  -2.2625  -2.1640  -2.0310  -1.9215  -1.7796
    -1.6591  -1.5531  -1.4933  -1.3861  -1.3449  -1.2591  -1.2159  -1.1631
    -1.0945  -1.0343  -1.0020  -0.9672  -0.9366  -0.9219  -0.9088  -0.8222
    -0.8144  -0.7437  -0.6932  -0.6724  -0.5724  -0.5332  -0.4945  -0.4217
    -0.3618  -0.2941  -0.2871  -0.1971  -0.1468  -0.0861  -0.0635  -0.0277
    -0.0025   0.0115   0.0656   0.1268   0.1400   0.1921   0.2094   0.2311
     0.2869   0.3583   0.3694   0.3829   0.4320   0.4671   0.5070   0.5466
     0.5711   0.6105   0.6204   0.6339   0.6468   0.7450   0.7946   0.8086
     0.8760   0.8970   0.9460   0.9869   1.0550   1.0712   1.1078   1.2218
     1.2407   1.2992   1.3096   1.3241   1.3957   1.4492   1.4632   1.4930
     1.5155   1.5485   1.6590   1.6821   1.7366   1.7976   1.8672   1.8891
     1.9727   2.0143   2.0455   2.0976   2.1298   2.1760   2.2685   2.3778
     2.4588   2.5908   2.7550   2.8240   2.8719   2.9647   2.9912   3.1557
     8.0920   8.3568   8.5505   8.7826   9.5953   9.6754   9.8007  10.0110
    10.1469  10.2398  10.4085  10.5340  10.5691  10.7628  10.8024  10.8261
    10.8678  10.9766  10.9865  11.0615  11.1057  11.1724  11.2184  11.2747
    11.3499  11.4320  11.5338  11.5956

          k = 0.5000 0.5774 0.0000 (107556 PWs)   bands (ev):

   -17.9654 -17.7292 -17.6377 -17.3448 -17.1958 -17.0586 -17.0051 -16.8475
   -16.8011 -16.6391 -16.5497 -16.4458 -16.3439 -16.3140 -16.1964 -16.1658
   -16.1295 -16.0718 -15.9133 -15.8477 -15.7904 -15.6752 -15.6259 -15.5535
   -15.4944 -15.4819 -15.4086 -15.3051 -15.2230 -15.1785 -15.1642 -15.0421
   -14.9948 -14.9599 -14.9072 -14.8815 -14.8202 -14.6273 -14.5921 -14.5205
   -14.4948 -14.3828 -14.2425 -14.2216 -14.0614 -13.6161 -13.1849 -12.9801
    -7.4236  -7.0639  -6.8713  -6.8021  -6.5455  -6.3819  -6.2905  -6.1477
    -5.8946  -5.6161  -5.4674  -5.3157  -5.1170  -4.9787  -4.9343  -4.7946
    -4.6277  -4.5803  -4.4558  -4.1972  -4.1472  -3.9625  -3.8883  -3.7773
    -3.7313  -3.6940  -3.6221  -3.4582  -3.4132  -3.3454  -3.3298  -3.2694
    -3.1351  -3.1026  -3.0197  -2.9537  -2.8939  -2.8351  -2.6905  -2.5548
    -2.5352  -2.4803  -2.4500  -2.3279  -2.1674  -2.0997  -1.8867  -1.7437
    -1.6722  -1.5474  -1.4868  -1.4030  -1.3422  -1.3186  -1.2533  -1.1869
    -1.1015  -1.0637  -1.0601  -1.0295  -0.9642  -0.9180  -0.8607  -0.7741
    -0.7570  -0.7052  -0.6133  -0.5986  -0.5688  -0.5111  -0.4885  -0.3876
    -0.3628  -0.3345  -0.2790  -0.2480  -0.1838  -0.1716  -0.1137  -0.0690
     0.0046   0.0313   0.0422   0.1194   0.1372   0.1609   0.1979   0.2391
     0.2949   0.3232   0.3581   0.3690   0.4250   0.4647   0.5229   0.5733
     0.5813   0.6059   0.6173   0.6786   0.7434   0.7554   0.8104   0.8349
     0.9031   0.9295   1.0059   1.0250   1.0482   1.0906   1.1049   1.1616
     1.2028   1.2720   1.3004   1.3191   1.3503   1.3819   1.4674   1.4752
     1.5385   1.5837   1.6657   1.7305   1.7704   1.7845   1.8247   1.8363
     1.8687   2.0368   2.0489   2.1024   2.1573   2.2723   2.2912   2.3565
     2.4868   2.5701   2.7920   2.8019   2.8741   2.9412   2.9797   3.1520
     8.2528   8.4689   8.6448   9.1947   9.3163   9.4785   9.5910   9.8054
    10.1805  10.2423  10.3904  10.4402  10.5557  10.5849  10.7802  10.8170
    10.8740  10.9200  11.0377  11.1014  11.1216  11.1570  11.2188  11.3227
    11.4434  11.4783  11.5503  11.6603

          k = 0.5000 0.5774 0.4550 (107528 PWs)   bands (ev):

   -17.9622 -17.7345 -17.6378 -17.3423 -17.1874 -17.0579 -17.0437 -16.8443
   -16.7712 -16.6296 -16.4980 -16.4817 -16.3609 -16.3015 -16.2182 -16.1696
   -16.1598 -16.0672 -15.9153 -15.8400 -15.7661 -15.6778 -15.5935 -15.5883
   -15.5113 -15.4603 -15.3961 -15.3084 -15.2392 -15.1985 -15.1163 -15.0462
   -15.0035 -14.9743 -14.9015 -14.8946 -14.8113 -14.6331 -14.5874 -14.5267
   -14.4965 -14.3741 -14.2473 -14.2137 -14.0594 -13.6188 -13.1848 -12.9801
    -7.4049  -7.0727  -6.9065  -6.7891  -6.5076  -6.4596  -6.4003  -6.0551
    -5.7395  -5.5473  -5.3618  -5.2703  -5.1865  -5.1832  -5.0610  -4.9040
    -4.5880  -4.4500  -4.3871  -4.2584  -4.0982  -3.9692  -3.9235  -3.8203
    -3.7953  -3.6324  -3.5705  -3.4729  -3.4585  -3.3555  -3.2772  -3.2046
    -3.1660  -3.0637  -3.0329  -2.9611  -2.8597  -2.7932  -2.6769  -2.6669
    -2.5825  -2.5372  -2.4586  -2.1663  -2.1351  -2.1243  -1.9343  -1.8063
    -1.5666  -1.5340  -1.4951  -1.4286  -1.4073  -1.2840  -1.2489  -1.1889
    -1.0836  -1.0733  -1.0250  -1.0067  -0.9225  -0.9061  -0.8656  -0.8087
    -0.7779  -0.6961  -0.6756  -0.5939  -0.5756  -0.5250  -0.4936  -0.4302
    -0.3818  -0.3129  -0.2638  -0.2168  -0.2115  -0.1591  -0.1218  -0.0649
    -0.0266   0.0186   0.0669   0.0919   0.1245   0.1811   0.2495   0.2643
     0.3031   0.3508   0.3803   0.3949   0.4349   0.4391   0.4976   0.5419
     0.5718   0.6457   0.6480   0.6737   0.6922   0.7361   0.7821   0.8027
     0.8414   0.9272   1.0038   1.0270   1.0396   1.1048   1.1532   1.1766
     1.2082   1.2689   1.2773   1.3291   1.3368   1.4393   1.4931   1.5073
     1.5704   1.6120   1.6484   1.6616   1.6983   1.7964   1.8472   1.9011
     1.9250   2.0121   2.0655   2.0887   2.1410   2.2102   2.2618   2.3497
     2.5022   2.5516   2.8042   2.8334   2.8545   2.9281   2.9961   3.1628
     8.3038   8.6002   8.7650   8.9926   9.1633   9.3181   9.6318   9.8292
    10.0380  10.1437  10.3599  10.5377  10.6346  10.6547  10.7271  10.8387
    10.8974  10.9747  11.0324  11.1038  11.1302  11.2205  11.2516  11.3133
    11.4194  11.5132  11.5521  11.6339

     highest occupied, lowest unoccupied level (ev):     3.1691    7.4912

!    total energy              =   -1797.18315350 Ry
     estimated scf accuracy    <          1.8E-09 Ry

     The total energy is the sum of the following terms:
     one-electron contribution =    -908.16256221 Ry
     hartree contribution      =     658.74930813 Ry
     xc contribution           =    -486.18458019 Ry
     ewald contribution        =   -1061.15112041 Ry

     convergence has been achieved in  13 iterations

     Forces acting on atoms (cartesian axes, Ry/au):

     atom    1 type  1   force =     0.06022149   -0.06754891    0.18978416
     atom    2 type  1   force =     0.04090444    0.10678399   -0.13883475
     atom    3 type  1   force =    -0.02951402    0.29910124   -0.26008940
     atom    4 type  2   force =     0.00742141    0.05796271    0.06200965
     atom    5 type  2   force =    -0.06509835    0.04928489   -0.05038290
     atom    6 type  2   force =    -0.07191397   -0.09500541    0.08669964
     atom    7 type  2   force =     0.00161182   -0.08157328   -0.04205444
     atom    8 type  2   force =     0.00515208    0.02258205   -0.00747864
     atom    9 type  2   force =    -0.05044885   -0.02520788    0.03353532
     atom   10 type  1   force =     0.04691867    0.02800454    0.02637742
     atom   11 type  1   force =     0.14016689    0.02169466    0.02284141
     atom   12 type  1   force =     0.04348454   -0.18252991   -0.09126551
     atom   13 type  2   force =    -0.01761202    0.02200908    0.02774894
     atom   14 type  2   force =     0.03970145   -0.04251703    0.04411594
     atom   15 type  2   force =     0.08784994   -0.02252409   -0.03560363
     atom   16 type  2   force =    -0.11869235    0.18732317    0.06900241
     atom   17 type  2   force =    -0.13520239   -0.03116145   -0.09487023
     atom   18 type  2   force =     0.01613448    0.05180368    0.04346727
     atom   19 type  1   force =     0.21078600   -0.03073467    0.00839472
     atom   20 type  1   force =     0.15824715   -0.00635340    0.00139060
     atom   21 type  2   force =     0.09750596   -0.06078919    0.03617720
     atom   22 type  2   force =    -0.08380640    0.09317008    0.06712308
     atom   23 type  2   force =    -0.21400102   -0.00747825   -0.17085280
     atom   24 type  2   force =     0.08450616    0.13047720   -0.06529639
     atom   25 type  1   force =    -0.11166975    0.20884643    0.11275435
     atom   26 type  1   force =     0.04349553   -0.16497340   -0.11332563
     atom   27 type  2   force =     0.15720483   -0.16647273    0.12828034
     atom   28 type  2   force =    -0.05309527   -0.03540176    0.00801586
     atom   29 type  2   force =    -0.10955139    0.02293975   -0.10538248
     atom   30 type  2   force =    -0.06654463   -0.11268975    0.08750668
     atom   31 type  1   force =     0.08718824    0.00654655    0.16008689
     atom   32 type  1   force =    -0.26506977   -0.03241451   -0.11927825
     atom   33 type  1   force =    -0.09965722   -0.00266003    0.00234491
     atom   34 type  2   force =    -0.01959172   -0.02633573    0.01289563
     atom   35 type  2   force =     0.13036020   -0.13446784    0.15682795
     atom   36 type  2   force =     0.10381404    0.07579248   -0.04529107
     atom   37 type  2   force =    -0.03420841    0.08574778    0.00436154
     atom   38 type  2   force =     0.00687610    0.05850708   -0.01294765
     atom   39 type  2   force =     0.10496325    0.12022755   -0.14199771
     atom   40 type  1   force =    -0.02749874   -0.19932066    0.00628911
     atom   41 type  1   force =     0.10889921   -0.10029084   -0.06465640
     atom   42 type  1   force =    -0.19657249   -0.10556056   -0.02638314
     atom   43 type  2   force =     0.00508562   -0.06107349   -0.05637741
     atom   44 type  2   force =     0.24550159   -0.17134087    0.20286042
     atom   45 type  2   force =    -0.00027145    0.01266727    0.03801372
     atom   46 type  2   force =    -0.07194828    0.11683483    0.07467815
     atom   47 type  2   force =    -0.24128735    0.11253375   -0.16245176
     atom   48 type  2   force =     0.00674443   -0.10703860    0.02729003
     atom   49 type  1   force =     0.08482424   -0.04124753    0.07280687
     atom   50 type  1   force =     0.16667878   -0.07933586    0.02501850
     atom   51 type  1   force =    -0.18828004    0.19873330   -0.03984369
     atom   52 type  2   force =    -0.02759175    0.03672795    0.01568611
     atom   53 type  2   force =     0.12097557   -0.09703081    0.17664292
     atom   54 type  2   force =    -0.01364246   -0.03807370   -0.00736367
     atom   55 type  2   force =    -0.03938669   -0.05295666   -0.00018010
     atom   56 type  2   force =    -0.01458241    0.04838449   -0.02375796
     atom   57 type  2   force =     0.05180399   -0.03173359   -0.00032263
     atom   58 type  1   force =     0.20736466   -0.01383776   -0.09142069
     atom   59 type  1   force =    -0.12057906   -0.04233370    0.12648300
     atom   60 type  1   force =    -0.29205858    0.17792485   -0.13617704
     atom   61 type  2   force =     0.05692867    0.04321430    0.06329667
     atom   62 type  2   force =    -0.04021021    0.05651803   -0.07224362
     atom   63 type  2   force =    -0.00397191    0.07031454   -0.05751107
     atom   64 type  2   force =     0.03160258   -0.10621962   -0.05954690
     atom   65 type  2   force =     0.03185023    0.07576036    0.05938955
     atom   66 type  2   force =     0.06885554    0.01710000   -0.05865485
     atom   67 type  1   force =    -0.19245998    0.02910133    0.07168473
     atom   68 type  2   force =     0.00397629   -0.00487417   -0.02619138
     atom   69 type  2   force =     0.05438054   -0.09203141   -0.02894798
     atom   70 type  1   force =     0.01208924   -0.08910177   -0.02843053
     atom   71 type  2   force =     0.07449069    0.11799764    0.07112968
     atom   72 type  2   force =     0.00945235   -0.00037675    0.01240091

     Total force =     1.456565     Total SCF correction =     0.000052


     Computing stress (Cartesian axis) and pressure

          total   stress  (Ry/bohr**3)                   (kbar)     P=       93.54
   0.00072277  -0.00018526   0.00017071          106.32      -27.25       25.11
  -0.00018526   0.00045633  -0.00019261          -27.25       67.13      -28.33
   0.00017071  -0.00019261   0.00072844           25.11      -28.33      107.16


     Writing all to output data dir /n/holyscratch01/kozinsky_lab/sfalletta/QE/SiO2/SiO2-T600-Ey-0/SiO2.save/

     init_run     :      6.41s CPU      6.84s WALL (       1 calls)
     electrons    :  13346.98s CPU  14015.57s WALL (       1 calls)
     forces       :      2.95s CPU      2.97s WALL (       1 calls)
     stress       :     57.07s CPU     57.55s WALL (       1 calls)

     Called by init_run:
     wfcinit      :      4.04s CPU      4.16s WALL (       1 calls)
     potinit      :      0.25s CPU      0.27s WALL (       1 calls)
     hinit0       :      0.46s CPU      0.61s WALL (       1 calls)

     Called by electrons:
     c_bands      :    691.86s CPU    697.09s WALL (      13 calls)
     sum_band     :      7.49s CPU      7.60s WALL (      13 calls)
     v_of_rho     :      0.48s CPU      0.53s WALL (      14 calls)
     mix_rho      :      0.06s CPU      0.07s WALL (      13 calls)

     Called by c_bands:
     init_us_2    :      1.76s CPU      1.80s WALL (     232 calls)
     init_us_2:cp :      1.76s CPU      1.80s WALL (     232 calls)
     cegterg      :    687.45s CPU    692.48s WALL (     104 calls)

     Called by *egterg:
     cdiaghg      :     30.10s CPU     30.31s WALL (    1145 calls)
     h_psi        :    628.11s CPU    632.71s WALL (    1153 calls)
     g_psi        :      0.23s CPU      0.23s WALL (    1041 calls)

     Called by h_psi:
     h_psi:calbec :     21.45s CPU     21.60s WALL (    1153 calls)
     vloc_psi     :     41.33s CPU     41.88s WALL (    1153 calls)
     add_vuspsi   :     15.64s CPU     15.78s WALL (    1153 calls)

     General routines
     calbec       :     25.38s CPU     25.55s WALL (    1193 calls)
     fft          :      0.50s CPU      0.62s WALL (     190 calls)
     ffts         :      0.02s CPU      0.02s WALL (      27 calls)
     fftw         :     42.31s CPU     42.87s WALL (  167058 calls)
     interpolate  :      0.03s CPU      0.04s WALL (      14 calls)

     Parallel routines

     Electric-field routines
     h_epsi_set   :   8019.16s CPU   8317.56s WALL (      13 calls)
     h_epsi_apply :    549.15s CPU    552.93s WALL (    1145 calls)
     c_phase_fiel :   4627.59s CPU   4992.20s WALL (      39 calls)

     PWSCF        :      3h43m CPU      3h54m WALL


   This run was terminated on:  15: 1:46   3Feb2024            

=------------------------------------------------------------------------------=
   JOB DONE.
=------------------------------------------------------------------------------=
