variable MINIMIZE index 0

units		metal
atom_style	atomic

if "${DATA}" then "read_data ${STRUCTURE}.data" else "read_restart ${STRUCTURE}.restart"
read_data ${STRUCTURE}.data
read_data relaxed_ortho_quartz.data
Reading data file ...
  orthogonal box = (0 0 0) to (9.9706058 8.6347979 10.957059)
  1 by 1 by 1 MPI processor grid
  reading atoms ...
  72 atoms
  read_data CPU = 0.001 seconds
replicate $L $L $L
replicate 1 $L $L
replicate 1 1 $L
replicate 1 1 1
Replication is creating a 1x1x1 = 1 times larger system...
  orthogonal box = (0 0 0) to (9.9706058 8.6347979 10.957059)
  1 by 1 by 1 MPI processor grid
  72 atoms
  replicate CPU = 0.000 seconds

pair_style allegro
pair_coeff	* * ${MODEL}.pth Si O
pair_coeff	* * SiO2-all_properties-E0-memory.pth Si O
mass 1 28.08
mass 2 15.9994

timestep 0.002
# if "!${DATA}" then "uncompute polarization"
compute polarization all allegro polarization 3
compute allegro will evaluate the quantity polarization of length 3 (src/compute_allegro.cpp:53)
compute polarizability all allegro polarizability 9
compute allegro will evaluate the quantity polarizability of length 9 (src/compute_allegro.cpp:53)

thermo 1
thermo_style custom pe fmax fnorm spcpu
min_style fire
minimize 0.0 1e-6 100 100
Neighbor list info ...
  update: every = 1 steps, delay = 0 steps, check = yes
  max neighbors/atom: 2000, page size: 100000
  master list distance cutoff = 8
  ghost atom cutoff = 8
  binsize = 4, bins = 3 3 3
  1 neighbor lists, perpetual/occasional/extra = 1 0 0
  (1) pair allegro, perpetual
      attributes: full, newton on, ghost
      pair build: full/bin/ghost
      stencil: full/ghost/bin/3d
      bin: standard
  Parameters for fire:
    dmax  delaystep dtgrow dtshrink alpha0 alphashrink tmax tmin   integrator   halfstepback   abcfire  
     0.1     20      1.1     0.5     0.25     0.99      10  0.02 eulerimplicit      yes          no     
Per MPI rank memory allocation (min/avg/max) = 3.488 | 3.488 | 3.488 Mbytes
    PotEng          Fmax          Fnorm          S/CPU     
-24461.027      0.017509319    0.13708348     0            
-24461.052      0.013421813    0.12492287     0.44047629   
-24461.033      0.01129801     0.10044334     0.87579378   
-24461.057      0.0083959377   0.065397725    18.553204    
-24461.086      0.0087195931   0.060607642    18.591832    
-24461.057      0.0099092902   0.061413978    18.597867    
-24461.066      0.0090689914   0.060655938    18.602054    
-24461.075      0.0081875003   0.053841288    18.607853    
-24461.058      0.006618615    0.038107284    18.582708    
-24461.068      0.006846       0.03608732     18.604991    
-24461.065      0.0062262659   0.036306951    18.601427    
-24461.067      0.0063673904   0.036466281    18.604578    
-24461.07       0.006025962    0.032524078    18.598238    
-24461.072      0.0068082695   0.031006992    18.607902    
-24461.074      0.0069398633   0.033201588    18.60914     
-24461.072      0.0061743775   0.02873828     18.64479     
-24461.073      0.0069474638   0.031304525    18.601635    
-24461.071      0.007141233    0.028976592    18.607808    
-24461.061      0.0066312885   0.030465054    18.608623    
-24461.065      0.0064410772   0.02729254     18.599725    
-24461.066      0.0054434225   0.02612038     18.607042    
-24461.068      0.0067482873   0.027759607    18.605397    
-24461.07       0.0055237135   0.025557267    18.605286    
-24461.068      0.0050596448   0.024041053    18.606514    
-24461.075      0.0074619018   0.026020438    18.602879    
-24461.075      0.0057471322   0.030961797    18.602359    
-24461.079      0.0063152133   0.026361814    18.601725    
-24461.083      0.0066469933   0.024418436    18.609456    
-24461.073      0.0061692438   0.024242044    18.608328    
-24461.081      0.0052402988   0.021292749    9.3049829    
-24461.086      0.0045931896   0.018890114    18.606199    
-24461.092      0.0032449686   0.017120418    18.60547     
-24461.099      0.0038441432   0.01755664     18.603347    
-24461.094      0.004194958    0.020127723    18.604229    
-24461.095      0.0031928127   0.017237673    9.3036836    
-24461.098      0.003051456    0.015678388    18.605491    
-24461.1        0.0033141973   0.014797928    18.602741    
-24461.098      0.003347279    0.016703638    18.595771    
-24461.098      0.0029793247   0.015443394    18.600456    
-24461.1        0.0030699487   0.014960851    18.599676    
-24461.099      0.0045636674   0.014937166    18.600875    
-24461.1        0.0039032147   0.016639942    18.604506    
-24461.101      0.0032533408   0.016103402    18.580677    
-24461.104      0.0032910651   0.015842206    18.611476    
-24461.105      0.0040031574   0.017836584    18.607402    
-24461.106      0.0034682224   0.014986732    18.607201    
-24461.105      0.0032981001   0.015644823    18.60038     
-24461.106      0.0036225493   0.017368603    18.600577    
-24461.106      0.0029871387   0.015759137    18.603656    
-24461.105      0.0034264235   0.015295602    18.589076    
-24461.109      0.0036600153   0.014447753    18.608124    
-24461.107      0.0048500759   0.016284544    18.59803     
-24461.11       0.0030606338   0.0137852      18.596841    
-24461.107      0.0049497033   0.014517453    18.600186    
-24461.107      0.0028711943   0.014137985    18.606903    
-24461.108      0.0031591477   0.014388208    18.604544    
-24461.104      0.0037670964   0.016181841    18.601475    
-24461.105      0.0036486      0.016242542    18.603056    
-24461.108      0.0040995902   0.015956528    18.601627    
-24461.106      0.0038205813   0.015494405    18.603608    
-24461.103      0.0031522456   0.016078273    18.606906    
-24461.104      0.0046411891   0.016282457    9.3078301    
-24461.106      0.0038174865   0.014892636    18.60186     
-24461.107      0.0032713075   0.01253188     18.604183    
-24461.105      0.003241789    0.015444251    18.60359     
-24461.103      0.0026664899   0.014820445    18.605182    
-24461.107      0.0030155207   0.015745809    18.602592    
-24461.108      0.0040018828   0.015195574    18.605626    
-24461.105      0.0044314869   0.018023805    18.60237     
-24461.108      0.0033408874   0.013949343    18.603313    
-24461.106      0.0032373046   0.015687579    18.604069    
-24461.108      0.004275999    0.016506727    18.598149    
-24461.105      0.003042414    0.01580632     18.610091    
-24461.103      0.0032099944   0.016702925    18.607812    
-24461.103      0.0026865535   0.014238551    18.605269    
-24461.107      0.0040626741   0.016317629    18.607083    
-24461.103      0.0032898524   0.014997082    18.606095    
-24461.102      0.0029724285   0.015061745    18.602658    
-24461.105      0.0044099946   0.016561643    18.602349    
-24461.104      0.0040696753   0.018509717    18.608908    
-24461.104      0.0031654623   0.015037618    18.603601    
-24461.1        0.0026939883   0.015085472    18.604655    
-24461.101      0.0037887953   0.01876593     18.600211    
-24461.103      0.0029272349   0.015846356    18.602474    
-24461.099      0.0033539298   0.015657942    18.610935    
-24461.095      0.0043976626   0.018576133    18.604004    
-24461.093      0.003585393    0.015938307    18.60573     
-24461.092      0.0040232734   0.018096138    18.606941    
-24461.091      0.0031053503   0.016922458    18.600224    
-24461.096      0.0052854573   0.018745138    18.605373    
-24461.093      0.0037709855   0.019212125    9.3073357    
-24461.093      0.0031332117   0.015322568    18.608148    
-24461.09       0.0035842787   0.016984512    18.59609     
-24461.094      0.0034314659   0.015172395    18.582411    
-24461.092      0.0031811181   0.015941843    18.604073    
-24461.095      0.0028131385   0.014446141    18.603917    
-24461.097      0.0040412887   0.017350329    18.609502    
-24461.094      0.0033499019   0.016080704    18.600089    
-24461.096      0.002760145    0.014296315    18.603005    
-24461.095      0.0037952463   0.015898269    18.606178    
-24461.094      0.0039453085   0.016455875    18.60444     
Loop time of 8.89489 on 1 procs for 100 steps with 72 atoms

99.2% CPU use with 1 MPI tasks x 1 OpenMP threads

Minimization stats:
  Stopping criterion = max iterations
  Energy initial, next-to-last, final = 
     -24461.0271965719  -24461.0949736974  -24461.0935242602
  Force two-norm initial, final = 0.13708348 0.016455875
  Force max component initial, final = 0.017509319 0.0039453085
  Final line search alpha, max atom move = 0 0
  Iterations, force evaluations = 100 105

MPI task timing breakdown:
Section |  min time  |  avg time  |  max time  |%varavg| %total
---------------------------------------------------------------
Pair    | 8.8925     | 8.8925     | 8.8925     |   0.0 | 99.97
Neigh   | 0          | 0          | 0          |   0.0 |  0.00
Comm    | 0.00046172 | 0.00046172 | 0.00046172 |   0.0 |  0.01
Output  | 0.00091543 | 0.00091543 | 0.00091543 |   0.0 |  0.01
Modify  | 0          | 0          | 0          |   0.0 |  0.00
Other   |            | 0.001067   |            |       |  0.01

Nlocal:             72 ave          72 max          72 min
Histogram: 1 0 0 0 0 0 0 0 0 0
Nghost:           1263 ave        1263 max        1263 min
Histogram: 1 0 0 0 0 0 0 0 0 0
Neighs:              0 ave           0 max           0 min
Histogram: 1 0 0 0 0 0 0 0 0 0
FullNghs:        12096 ave       12096 max       12096 min
Histogram: 1 0 0 0 0 0 0 0 0 0

Total # of neighbors = 12096
Ave neighs/atom = 168
Neighbor list builds = 0
Dangerous builds = 0


thermo 1
thermo_style custom pe c_polarization[*]

run 0
WARNING: No fixes with time integration, atoms won't move (src/verlet.cpp:60)
Per MPI rank memory allocation (min/avg/max) = 3.488 | 3.488 | 3.488 Mbytes
    PotEng     c_polarization[1] c_polarization[2] c_polarization[3]
-24461.095     -0.00034130443 -5.0894759e-05 -0.00072686986
Loop time of 1.132e-06 on 1 procs for 0 steps with 72 atoms

176.7% CPU use with 1 MPI tasks x 1 OpenMP threads

MPI task timing breakdown:
Section |  min time  |  avg time  |  max time  |%varavg| %total
---------------------------------------------------------------
Pair    | 0          | 0          | 0          |   0.0 |  0.00
Neigh   | 0          | 0          | 0          |   0.0 |  0.00
Comm    | 0          | 0          | 0          |   0.0 |  0.00
Output  | 0          | 0          | 0          |   0.0 |  0.00
Modify  | 0          | 0          | 0          |   0.0 |  0.00
Other   |            | 1.132e-06  |            |       |100.00

Nlocal:             72 ave          72 max          72 min
Histogram: 1 0 0 0 0 0 0 0 0 0
Nghost:           1263 ave        1263 max        1263 min
Histogram: 1 0 0 0 0 0 0 0 0 0
Neighs:              0 ave           0 max           0 min
Histogram: 1 0 0 0 0 0 0 0 0 0
FullNghs:        12096 ave       12096 max       12096 min
Histogram: 1 0 0 0 0 0 0 0 0 0

Total # of neighbors = 12096
Ave neighs/atom = 168
Neighbor list builds = 0
Dangerous builds = 0

variable P0x equal $(c_polarization[1])
variable P0x equal -0.00034130442970791850972
variable P0y equal $(c_polarization[2])
variable P0y equal -5.0894759037094798777e-05
variable P0z equal $(c_polarization[3])
variable P0z equal -0.00072686985837678436129

variable eps0 equal 5.5263499562*1e-3

variable efield equal 1e-3*36.36
fix born all addbornforce 0.0 0.0 $(v_efield)
fix born all addbornforce 0.0 0.0 0.036360000000000003428

variable Px equal f_born[1]+c_polarization[1]
variable Py equal f_born[2]+c_polarization[2]
variable Pz equal f_born[3]+c_polarization[3]

variable eps equal 1+(v_Pz-v_P0z)/(v_efield*vol*v_eps0)

thermo_style custom step time temp press pe f_born c_polarization[*] f_born[*] c_polarizability[*] v_eps fmax fnorm spcpu cpuremain

dump 4a all custom 10 dump.relax.${MODEL}.${STRUCTURE}.${GAMMA}.$L.bin id type xu yu zu fx fy fz
dump 4a all custom 10 dump.relax.SiO2-all_properties-E0-memory.${STRUCTURE}.${GAMMA}.$L.bin id type xu yu zu fx fy fz
dump 4a all custom 10 dump.relax.SiO2-all_properties-E0-memory.relaxed_ortho_quartz.${GAMMA}.$L.bin id type xu yu zu fx fy fz
dump 4a all custom 10 dump.relax.SiO2-all_properties-E0-memory.relaxed_ortho_quartz.1.$L.bin id type xu yu zu fx fy fz
dump 4a all custom 10 dump.relax.SiO2-all_properties-E0-memory.relaxed_ortho_quartz.1.1.bin id type xu yu zu fx fy fz
dump_modify 4a sort id

reset_timestep 0
if "${MINIMIZE}" then "jump SELF minimize"
jump SELF minimize
minimize 0.0 1e-6 100 100
  Parameters for fire:
    dmax  delaystep dtgrow dtshrink alpha0 alphashrink tmax tmin   integrator   halfstepback   abcfire  
     0.1     20      1.1     0.5     0.25     0.99      10  0.02 eulerimplicit      yes          no     
Per MPI rank memory allocation (min/avg/max) = 3.488 | 3.488 | 3.488 Mbytes
   Step          Time           Temp          Press          PotEng         f_born     c_polarization[1] c_polarization[2] c_polarization[3]   f_born[1]      f_born[2]      f_born[3]    c_polarizability[1] c_polarizability[2] c_polarizability[3] c_polarizability[4] c_polarizability[5] c_polarizability[6] c_polarizability[7] c_polarizability[8] c_polarizability[9]     v_eps           Fmax          Fnorm          S/CPU         CPULeft    
         0   0              0              19340.488     -24461.095     -0.0097028364  -0.00055851675  5.1348292e-05 -0.00076698523  5.4624287e-06 -4.7810122e-06  0.26762167     7.1314818      0.00014122909  0.00015963385  0.00016605524  7.1316176     -0.00011578853  0.00015023181 -0.00013149098  7.360332       2.4116472      0.12850623     0.78098118     0              0            
         1   0.002          0.058362325    19335.666     -24461.058     -0.010773751   -0.00040826364  2.4014846e-06  0.028677037    3.6017209e-06  7.0309315e-07  0.26763075     7.1314702     -0.00011266822  0.0001180408  -9.1022142e-05  7.1314823      3.1687983e-05  9.9057231e-05  1.9336995e-05  7.3605817      2.5670293      0.11475114     0.68977885     9.2703192      10.679287    
         2   0.004          0.16319939     19418.35      -24461.085     -0.012590133   -0.0005434804  -0.00023756274  0.078630037    8.0810543e-08  1.0601632e-06  0.26763324     7.1320137      9.7030765e-05 -2.6486348e-05  9.6963643e-05  7.1318487      2.4118238e-05  2.2225122e-06  2.9157405e-05  7.36065        2.8305734      0.093932929    0.55078176     18.547402      7.9275943    
         3   0.006          0.28466999     19399.324     -24461.093     -0.014958446   -0.00083325555 -0.00031510631  0.14376626    -2.2700877e-06 -4.2939214e-06  0.26763215     7.1320918     -5.494009e-06  -5.7300236e-05  2.7283214e-05  7.1317408     -0.00011740444 -6.2433655e-05 -0.00011809465  7.3606203      3.1741988      0.066142041    0.3926289      18.546761      6.9744746    
         4   0.008          0.38415266     19393.701     -24461.041     -0.017503476   -0.00064054634 -0.00029164279  0.21378385     3.1508758e-06  2.6985675e-06  0.26760987     7.1316506     -0.00013628177  8.7090684e-05 -0.00010654221  7.1316418      6.152932e-05   8.665775e-05   7.4218028e-05  7.3600075      3.5434645      0.036511721    0.27558867     18.54785       6.4708801    
         5   0.01           0.40516809     19424.499     -24461.118     -0.020077247   -0.00018216144 -0.00056674694  0.28455805    -7.1469471e-06 -4.1587609e-06  0.26762147     7.1316492     -1.4232732e-05 -0.00020069749 -2.7344625e-05  7.1317306     -7.6958714e-05 -0.0001965607  -0.00011437736  7.3603264      3.9169004      0.041069599    0.27342528     18.545313      6.1472982    
         6   0.012          0.3496105      19437.286     -24461.107     -0.021834618    0.00039079245  0.00025091973  0.33286956     8.6431704e-07 -3.4028679e-07  0.26764248     7.1321342     -3.0495278e-06  2.7143005e-05 -8.0167168e-06  7.1320026     -2.2932794e-05  2.3771096e-05 -9.3588227e-06  7.3609044      4.1718824      0.041571412    0.27941654     18.546857      5.9135319    
         7   0.014          0.31293792     19451.91      -24461.11      -0.022782371   -0.00055463089 -3.8606787e-05  0.35893466     3.1041428e-06  1.3808295e-06  0.26764319     7.1322574     -3.7315272e-05  0.00011845879 -5.0450357e-05  7.132568       3.0733348e-05  8.5372464e-05  3.7976609e-05  7.3609239      4.3093946      0.037127589    0.23991287     18.539995      5.7314157    
         8   0.016          0.31828188     19429.263     -24461.042     -0.023121441    8.2305581e-05 -0.00050067833  0.36828874     3.5371033e-06  4.7987635e-06  0.26761449     7.1320454      5.4085644e-05  9.8783933e-05  8.1213644e-05  7.1318426      0.0001498738   9.7280069e-05  0.00013197919  7.3601344      4.3585913      0.022430221    0.14765306     18.545923      5.5811465    
         9   0.018          0.34638375     19378.476     -24461.073     -0.023178698   -0.00016213239 -0.00024446407  0.36984664    -2.092957e-06   6.1737613e-06  0.26763129     7.1319519     -1.4719885e-05 -4.3971216e-05 -1.6826833e-05  7.1317761      0.00015599339 -5.7562073e-05  0.00016979541  7.3605966      4.3668989      0.012433362    0.095213118    18.544766      5.4523221    
        10   0.02           0.33851785     19333.984     -24461.097     -0.023726769   -0.0002206511  -0.0014471119   0.38490902     2.0165297e-06  2.623574e-06   0.2676424      7.1319696      2.2145073e-06  5.1539006e-05 -1.8653303e-05  7.1319784      7.3493314e-05  5.5460113e-05  7.21555e-05    7.360902       4.4464202      0.018450717    0.11311548     18.538373      5.3386454    
        11   0.022          0.2700633      19354.912     -24461.068     -0.024816822   -0.0007367246  -0.00056491347  0.41490526     8.7907665e-07  4.3296777e-06  0.26762559     7.1321467     -4.1096243e-05  4.6749001e-05 -8.9445007e-06  7.1323136      0.00012018334  2.4177026e-05  0.00011907804  7.3604399      4.604579       0.01437986     0.089526816    18.52221       5.2362111    
        12   0.024          0.2057311      19376.279     -24461.067     -0.026117779   -0.00064108257  0.00043664315  0.45066514    -4.1212466e-07 -8.3736739e-06  0.26764561     7.1325131      6.401519e-05   1.0922988e-07  4.1214712e-05  7.1323346     -0.0002114505  -1.1334562e-05 -0.00023029906  7.3609904      4.7933386      0.012160874    0.063542827    18.538176      5.1415086    
        13   0.026          0.00050830102  19359.383     -24461.045     -0.02553183     6.1089647e-05 -0.00022904955  0.43456336     7.9264559e-07  3.0221895e-06  0.26763217     7.132428       6.7812293e-06  4.2648364e-05  2.7792438e-05  7.1320993      9.7285795e-05  2.1799934e-05  8.3118523e-05  7.3606207      4.7083216      0.0087755385   0.061536574    9.2781804      5.4133709    
        14   0.028          0.0014177982   19407.355     -24461.044     -0.02561027    -0.00034174716  0.00044269215  0.43672893     6.1199534e-06 -8.0539586e-06  0.26762392     7.1322453     -6.4899007e-05  0.00018014879 -6.5422936e-05  7.1322444     -0.00019512684  0.00016831555 -0.00022150601  7.3603938      4.7197027      0.0088395778   0.055115285    18.538662      5.3002776    
        15   0.03           0.0025444578   19431.74      -24461.047     -0.025656587   -0.00071111201 -2.9936429e-05  0.43800546    -1.505007e-06  -1.5394432e-06  0.26762123     7.1322425     -4.3549779e-06 -5.4385593e-05  1.2466756e-05  7.1321816     -3.3551969e-05 -4.1391833e-05 -4.2338923e-05  7.3603199      4.7264229      0.0066199763   0.045360603    18.544565      5.1949734    
        16   0.032          0.0036671256   19400.773     -24461.056     -0.025699404    6.0114508e-05 -4.7889557e-05  0.4391767     -5.7434144e-06  7.1694098e-06  0.26762759     7.1322764      6.7336201e-05 -0.0001722681   8.2526919e-05  7.1322588      0.00021970235 -0.00015795969  0.00019717849  7.3604947      4.7326354      0.0066942144   0.042141566    18.527739      5.0963491    
        17   0.034          0.0047537978   19421.421     -24461.05      -0.025737839    0.00024286685 -0.00036699006  0.44023177     1.0433657e-08 -8.6903096e-06  0.2676296      7.1320607     -6.743803e-05   8.5479968e-06 -5.2981593e-05  7.1321011     -0.00021923231  2.8695425e-07 -0.00023900741  7.3605501      4.7382121      0.005733218    0.036122732    18.550011      5.0026619    
        18   0.036          0.0053273143   19412.378     -24461.041     -0.025729381    0.0002438587  -0.00056077238  0.43999882    -1.5374562e-06 -4.9797645e-06  0.26762992     7.132163      -6.4113422e-05 -3.3070913e-05 -8.8400865e-05  7.1320621     -0.00012709535 -4.2284273e-05 -0.00013695722  7.3605589      4.7369849      0.0054750338   0.031876817    18.523846      4.9137405    
        19   0.038          0.0057369131   19358.672     -24461.048     -0.025711906    0.00061454576 -5.2374838e-05  0.43951141     2.2565722e-06 -1.4780897e-06  0.26763672     7.1323862      8.6654479e-06  8.0278519e-05  9.7035618e-06  7.1326061     -2.9678812e-05  6.206194e-05  -4.0651532e-05  7.3607458      4.7344493      0.0055040571   0.029308481    18.548057      4.828197     
        20   0.04           0.0055048096   19345.35      -24461.051     -0.025686514    0.00045847011 -9.1085383e-05  0.43880611     4.0495986e-07  1.9084798e-06  0.26764368     7.1324196     -0.00015236114 -6.5255794e-06 -0.00015951332  7.1323415      3.1597506e-05  1.113751e-05   5.2488444e-05  7.3609374      4.7307652      0.0052748385   0.026785055    18.53652       4.7459504    
        21   0.042          0.0052065333   19381.72      -24461.056     -0.025609889   -0.0001851142   0.00024774668  0.43670188     8.997438e-07   3.0586823e-06  0.26764049     7.1322811      7.0918073e-05  2.7115382e-05  0.00010414807  7.1323624      5.4860314e-05  2.4745429e-05  8.4122175e-05  7.3608495      4.7196473      0.0052942525   0.026084138    18.516852      4.6666143    
        22   0.044          0.004562922    19355.88      -24461.048     -0.025513873   -0.0014012587   0.00013158529  0.43405837    -2.1826136e-06  5.5067916e-07  0.26764331     7.1321718      7.4589033e-05 -3.3872826e-05  7.886453e-05   7.1324062      3.6986749e-05 -6.0027876e-05  1.5145191e-05  7.3609271      4.7057162      0.0062613763   0.028220303    18.539003      4.5893528    
        23   0.046          0.0037294827   19339.582     -24461.05      -0.025466901   -0.0013182445   2.8271531e-05  0.43276836    -1.7670003e-06 -4.4604184e-06  0.26764145     7.1324182      7.3835605e-06 -5.0391926e-05  1.3729729e-05  7.1323053     -0.00011655962 -4.8597368e-05 -0.00012267377  7.360876       4.6989008      0.0051080734   0.023861169    18.547178      4.514039     
        24   0.048          0.0027968744   19395.846     -24461.052     -0.025475082   -0.0011581361   0.00030772898  0.43299386    -2.0369041e-06 -5.5156726e-06  0.26764096     7.1324215      4.7205028e-06 -3.9076194e-05  3.1775573e-05  7.1322555     -0.00014740704 -5.6020466e-05 -0.00015169617  7.3608625      4.7000879      0.0056835426   0.024040598    18.537257      4.4405999    
        25   0.05           0.0020429643   19364.666     -24461.061     -0.025542593   -0.00082842901  0.00070480593  0.43484388    -1.3098028e-06 -2.8001543e-06  0.26764769     7.132527       0.00012386524 -3.5815115e-05  0.00013356942  7.1324192     -7.4555447e-05 -3.6023178e-05 -7.7011945e-05  7.3610476      4.7098833      0.0053095251   0.027590589    18.545286      4.3686502    
        26   0.052          0.0015957663   19360.89      -24461.074     -0.025632693   -0.00014210005  0.00093706193  0.43731902    -3.6563171e-06 -1.9055488e-06  0.26765053     7.1324117     -9.1313468e-05 -0.0001103291  -9.0911878e-05  7.1321518     -4.5490454e-05 -0.00010055878 -5.2407832e-05  7.3611257      4.7229561      0.005519499    0.026513268    18.529964      4.2982143    
        27   0.054          0.0012449682   19361.258     -24461.083     -0.025699173    0.00011490514  0.00065483293  0.43914665    -2.2608465e-06  3.7633195e-06  0.26765127     7.1323136     -3.1845803e-05 -6.0968435e-05 -2.4012842e-05  7.132308       9.8974806e-05 -6.2179498e-05  0.00010350164  7.3611461      4.7326018      0.0055485711   0.025157756    18.548577      4.2288519    
        28   0.028          1.8668812e-05  19396.013     -24461.078     -0.025674398    1.9802594e-05  0.00064454275  0.43846419     1.4850834e-06 -1.420752e-06   0.26765236     7.132435       3.6622055e-06  6.0549386e-05  1.6480294e-05  7.1323917     -5.9234473e-05  4.0843878e-05 -3.9074587e-05  7.3611759      4.7290072      0.005397934    0.028784319    9.2801612      4.2990495    
        29   0.029          4.7749474e-05  19348.73      -24461.079     -0.025682778   -0.00027562412  0.00055569145  0.43869583     1.7614726e-06 -6.2427866e-06  0.26765121     7.1322974      3.1209052e-05  4.8161213e-05  3.9535129e-05  7.1324392     -0.00017892026  4.8445341e-05 -0.0001716938   7.3611443      4.7302231      0.0052914123   0.025650101    18.54439       4.2251791    
        30   0.03           8.3415206e-05  19359.1       -24461.078     -0.025676724    0.00030647003  0.00056567855  0.43852847    -2.5911704e-06 -8.3807316e-06  0.26765205     7.1324392     -2.8360717e-05 -5.4645735e-05  4.0497665e-06  7.1321621     -0.00024209907 -7.1264311e-05 -0.00023049317  7.3611675      4.7293447      0.0043659356   0.022622565    18.545059      4.1526335    
        31   0.031          0.00010390011  19370.924     -24461.078     -0.025677035    0.00023055447  0.00079885741  0.43853469     3.1215244e-06 -3.4565345e-07  0.2676544      7.1325396     -4.0765468e-05  0.00011055556 -3.4794627e-05  7.1322578     -7.872284e-06   8.5850505e-05 -9.5064206e-06  7.3612322      4.7293899      0.0053937893   0.022829006    18.522722      4.081434     
        32   0.032          0.00013192397  19391.957     -24461.086     -0.025655379    8.7185858e-05  0.0004683853   0.43794531     7.350208e-06   1.9807486e-06  0.26764816     7.1323401     -2.2081806e-05  0.00017212517  1.0705365e-05  7.1323369      7.3748982e-05  0.00020215094  5.4476035e-05  7.3610606      4.7262476      0.0038554893   0.020431093    18.541885      4.0111919    
        33   0.033          0.00014056407  19366.808     -24461.079     -0.025667997    8.0660634e-05  0.00033959747  0.43829443     1.3995614e-06 -1.9832079e-06  0.26764608     7.1323741     -8.5957924e-05  3.1760891e-05 -7.6524844e-05  7.1323006     -5.3139374e-05  3.8491787e-05 -5.4543672e-05  7.3610034      4.7280785      0.0045916621   0.019879639    18.547981      3.9419023    
        34   0.034          0.00014336342  19336.343     -24461.073     -0.025677934    0.00011943927  0.00029413243  0.43856631    -9.8141912e-07  2.768983e-06   0.26764749     7.1323634     -9.1284458e-05 -2.3664815e-05 -6.9859325e-05  7.1323713      7.9955239e-05 -2.6991725e-05  7.6154648e-05  7.361042       4.7295202      0.0047124653   0.02066606     18.548736      3.8735129    
        35   0.035          0.00013088157  19341.385     -24461.07      -0.0256665      0.00024770644  2.5463216e-05  0.43825395    -4.8573389e-06 -1.2932443e-06  0.26764539     7.1324857     -3.5438789e-05 -0.00014386766 -1.1289791e-05  7.132129      -2.2499291e-05 -0.00013359018 -3.5567776e-05  7.3609843      4.7278613      0.0043876843   0.018970682    18.546378      3.8059632    
        36   0.036          0.00011319857  19368.357     -24461.069     -0.025661218    0.00022497866 -0.00041158891  0.43810014    -9.1848131e-06 -4.9491044e-06  0.26765393     7.1324248     -0.0001924869  -0.00024278679 -0.00014871511  7.1323271     -0.00011127641 -0.00025260762 -0.00013611398  7.3612191      4.7270948      0.0050032417   0.021432804    18.542285      3.7391922    
        37   0.037          0.00010545275  19357.647     -24461.067     -0.025666112    0.00040506775 -0.00043387884  0.43823442    -6.4941188e-06 -5.4431232e-07  0.26765425     7.1322908     -0.00013544322 -0.00020001628 -0.00013265684  7.132308      -2.2160604e-05 -0.00017860613 -1.4970086e-05  7.361228       4.727805       0.0061614985   0.020846905    18.521917      3.6732162    
        38   0.038          0.0001055006   19363.582     -24461.065     -0.025675658    0.00020402879 -0.00014840185  0.43850592    -5.7584844e-06 -1.5401286e-06  0.26764529     7.1322481     -0.00013669953 -0.00015399219 -0.00014256661  7.1323225     -4.376261e-05  -0.00015837416 -4.2357773e-05  7.3609815      4.72919        0.0030926211   0.017165682    18.542092      3.6077753    
        39   0.039          8.2885949e-05  19363.256     -24461.067     -0.025690355    2.0951494e-05  0.00010027252  0.43890584     4.5223858e-07 -4.1063711e-07  0.26764957     7.1323745     -0.00015646938 -9.0297069e-06 -0.00011856875  7.1322774      1.8931644e-06  1.2437805e-05 -1.129365e-05   7.3610992      4.7313224      0.0047741795   0.019630427    18.545007      3.5429113    
        40   0.04           7.9631685e-05  19341.319     -24461.064     -0.025704792    0.00063874419 -0.00017690376  0.43930227     1.9532267e-06  2.4208889e-06  0.26765021     7.1323094     -4.4827758e-05  6.1007662e-05 -4.9267286e-05  7.1323313      6.4406607e-05  5.3719105e-05  6.6581102e-05  7.3611168      4.7334172      0.0039650657   0.019030843    18.544738      3.4785954    
        41   0.041          7.1720089e-05  19357.494     -24461.064     -0.025715376    0.00065757253 -2.4773864e-05  0.43959557     1.0701513e-06 -2.8205133e-06  0.26764801     7.1322885     -3.6698109e-05  2.9209636e-05 -1.7194816e-05  7.1323499     -5.619206e-05   2.9432103e-05 -7.7571872e-05  7.3610564      4.7349529      0.003829059    0.02038831     18.525882      3.4148656    
        42   0.042          7.4952909e-05  19369.221     -24461.058     -0.025703753    0.00070877267 -6.769274e-05   0.43928068     9.0783735e-07 -3.7970841e-06  0.26764321     7.1324136     -0.00011535371 -6.030684e-06  -9.55334e-05    7.1323545     -0.00011466923  2.4968024e-05 -0.00010443026  7.3609244      4.7332663      0.0050365292   0.022302438    18.546375      3.3515176    
        43   0.043          7.7728779e-05  19354.278     -24461.06      -0.025709421    0.0008143943  -0.00034317057  0.43943414    -2.5551249e-06 -9.9306271e-07  0.26764564     7.132428      -6.9328855e-05 -5.6599314e-05 -8.8235121e-05  7.1321421     -1.5441215e-05 -7.0272961e-05 -2.7311956e-05  7.3609913      4.7340888      0.0037718745   0.020370162    18.535877      3.2886487    
        44   0.044          7.541977e-05   19351.195     -24461.063     -0.025724056    0.0006482904  -0.0004565821   0.43983513    -4.6383827e-06 -2.9156689e-07  0.26764717     7.1324294      1.9332116e-05 -0.00011311561  2.1746135e-07  7.1324833      1.727933e-05  -0.00012756828 -8.0188913e-06  7.3610332      4.7362123      0.003987054    0.020198509    18.543656      3.2261565    
        45   0.045          7.930791e-05   19327.301     -24461.053     -0.02574306     0.00072510404 -0.00062629646  0.44035169    -2.0427161e-06  4.2835426e-07  0.26765327     7.1324513     -9.3939761e-05 -6.1971428e-05 -0.00011235377  7.1325349      2.3978301e-05 -5.6180311e-05  1.178092e-05   7.361201       4.7389696      0.004952157    0.019462506    18.549198      3.1640253    
        46   0.046          6.7552132e-05  19351.55      -24461.057     -0.025740801    0.000444183   -0.00033728803  0.44029119    -2.441295e-06  -1.3290919e-06  0.26765163     7.1323745     -4.6195136e-05 -8.4587439e-05 -2.6792042e-05  7.132547      -5.6843961e-05 -6.7142327e-05 -3.6553684e-05  7.3611559      4.7386418      0.003799898    0.020276078    18.544948      3.102266     
        47   0.047          6.1404236e-05  19354.116     -24461.055     -0.025733674    0.00036126217 -0.0004411655   0.44009562    -4.8654275e-06  2.5311086e-06  0.26765119     7.1324885      3.5399673e-05 -0.00013517717  6.479781e-05   7.1324094      8.6504074e-05 -0.00013381264  6.9612447e-05  7.3611438      4.7376077      0.004510761    0.021115395    18.542895      3.0408468    
        48   0.048          5.7192953e-05  19337.989     -24461.051     -0.025742864    0.00040085597 -0.00047121593  0.44034446    -7.0173797e-06 -6.8836075e-06  0.26765511     7.1325754     -0.00010305829 -0.0001704486  -6.6308548e-05  7.1325582     -0.00015154214 -0.00019299724 -0.00018931814  7.3612517      4.7389412      0.0053451833   0.020335539    18.54509       2.979733     
        49   0.0539         6.0953784e-05  19361.748     -24461.049     -0.025740547    0.00017971361 -0.00055200339  0.44027771    -1.2534388e-06 -2.723336e-06   0.26765812     7.1325489     -3.6359764e-05 -4.9978516e-05 -1.3894114e-05  7.1324568     -5.7012738e-05 -3.4473015e-05 -7.489923e-05   7.3613344      4.7386049      0.005527667    0.018741683    18.550742      2.9188954    
        50   0.0605         6.8050602e-05  19350.01      -24461.049     -0.025742864    0.00041736831 -0.00044085175  0.44035216    -3.4157034e-06 -3.0132267e-06  0.2676474      7.1323085     -6.3433916e-05 -8.3972181e-05 -4.0634973e-05  7.1324327     -3.0086792e-05 -9.3941237e-05 -8.2872021e-05  7.3610397      4.7389411      0.004067741    0.019455918    18.541603      2.8583617    
        51   0.067881       6.7409101e-05  19333.491     -24461.047     -0.025746395    0.00028102567 -0.00011363489  0.44044945    -5.6884571e-06 -7.4229444e-08  0.26764723     7.1323346     -2.0185779e-05 -0.00013871201 -2.3447044e-05  7.1324141      3.1305931e-06 -0.00015644821 -2.0415139e-06  7.361035       4.7394535      0.0051598255   0.020527427    18.520031      2.7981472    
        52   0.0761332      7.4939205e-05  19335.484     -24461.05      -0.025737403   -9.7368567e-05 -0.00021685188  0.44019559    -7.5248895e-06 -1.1870026e-07  0.26765379     7.1322941     -4.3960685e-05 -0.00019328789 -3.4050833e-05  7.1324787     -1.3871766e-05 -0.00020695516 -3.2645837e-06  7.3612154      4.7381488      0.004173324    0.017439106    18.54735       2.7380985    
        53   0.08535703     7.7516608e-05  19341.922     -24461.051     -0.025761045    0.00027117277 -0.00050777248  0.44085904    -3.1793174e-06 -6.0797706e-06  0.26764056     7.1322676      3.5941597e-05 -6.5214171e-05  4.0870188e-05  7.1322081     -0.00015430633 -8.7439972e-05 -0.00016721041  7.3608514      4.7415791      0.0055963868   0.01993466     18.54978       2.6782748    
        54   0.04348377     6.1408265e-06  19354.217     -24461.05      -0.025740037    0.00039016162 -0.00039972849  0.4402764     -6.1703613e-06 -7.8932629e-07  0.26764541     7.1322271     -3.9073874e-05 -0.00016461436 -9.9926969e-06  7.1322755     -1.1531058e-05 -0.00016970191 -2.1708644e-05  7.3609848      4.738531       0.0038373284   0.017187207    9.2764738      2.664577     
        55   0.044289025    1.1529509e-05  19339.943     -24461.051     -0.025734539    0.00033521545 -0.00034903028  0.4401252      6.2008121e-07 -6.3401556e-06  0.26764539     7.1324038      2.9856126e-05  2.1817853e-05  5.5974092e-05  7.1322183     -0.00015319782  1.7053939e-05 -0.00017437172  7.3609843      4.7377332      0.0035928421   0.019680026    18.51734       2.6034425    
        56   0.04509428     1.7409702e-05  19355.994     -24461.047     -0.025734002    0.00027973664 -0.00014303881  0.44011126    -8.5680836e-06 -1.334357e-06   0.26764456     7.1323071      0.00015430982 -0.00023014551  0.00015275389  7.1321639     -3.050189e-05  -0.00023564586 -3.6698488e-05  7.3609616      4.7376553      0.0044235398   0.018155293    18.54845       2.5424914    
        57   0.045899535    2.3023881e-05  19327.447     -24461.048     -0.025744094    0.00025362802 -0.00025809129  0.44038869    -6.7656709e-07 -9.2626844e-07  0.26764471     7.1322829      7.6180146e-05 -3.0596018e-05  4.7353177e-05  7.1323597     -2.3474263e-05 -1.8607456e-05 -2.547493e-05   7.3609657      4.7391197      0.004376296    0.021090695    18.543387      2.4817983    
        58   0.04670479     2.8181746e-05  19351.57      -24461.049     -0.025743118    0.0003812804   0.00010143225  0.44036297    -1.018688e-06  -1.7545664e-06  0.26764356     7.1323239      8.4293777e-06 -4.5795036e-05  8.8767287e-06  7.1323169     -6.4104497e-05 -2.8016721e-05 -4.8255401e-05  7.3609341      4.7389779      0.0047632997   0.021219625    18.521388      2.421385     
        59   0.047510045    2.957913e-05   19337.141     -24461.047     -0.025751093    4.043951e-05  -7.8057256e-05  0.44057653     8.9116884e-07 -2.5046386e-06  0.26764936     7.1325591     -9.4292828e-06  2.3409675e-05  2.0625143e-06  7.132315      -5.5189146e-05  2.4509594e-05 -6.8884449e-05  7.3610936      4.7401352      0.004354179    0.017684957    18.504332      2.3612239    
        60   0.0483153      3.1594606e-05  19314.3       -24461.047     -0.02575554     8.6913808e-05 -0.00010396448  0.44070282    -3.3378653e-06 -1.2798073e-06  0.26764536     7.1325205     -0.00017187754 -9.35214e-05   -0.00015752615  7.1323434     -3.6202338e-05 -9.1800477e-05 -3.5198221e-05  7.3609834      4.7407803      0.0035992998   0.017357112    18.543663      2.3011904    
        61   0.049120555    3.3387924e-05  19347.577     -24461.047     -0.025750862    0.00011029053  0.00011357957  0.44057272    -9.4615636e-06  4.4184873e-08  0.26764679     7.1324406     -0.00010855518 -0.00024742862 -0.00010932581  7.1321807      1.6911523e-05 -0.00026021902  1.2152055e-06  7.3610229      4.7401015      0.0048308362   0.018393748    18.515516      2.2414095    
        62   0.04992581     3.7252964e-05  19327.023     -24461.042     -0.025746607    0.00036159941 -0.00013562079  0.44045145    -5.4419792e-06 -3.3022548e-06  0.26765104     7.1324666     -0.00012761479 -0.00015172518 -0.00012023014  7.1322918     -7.1491367e-05 -0.00014966939 -9.0821088e-05  7.3611396      4.7394842      0.0041221245   0.019313341    18.543308      2.1817652    
        63   0.050731065    3.3410804e-05  19330.51      -24461.045     -0.025750858    0.00050501648  0.0001454917   0.44056976    -3.2190948e-06  1.6444366e-06  0.26764965     7.1325568     -0.00013034007 -5.1903476e-05 -0.00012444359  7.1322908      5.1632537e-05 -8.8533959e-05  4.5226528e-05  7.3611015      4.740101       0.0045569515   0.020243916    18.547319      2.1222955    
        64   0.02576816     1.4461692e-06  19333.499     -24461.046     -0.025754584    0.00049368879 -0.00010852331  0.44067373    -5.6870816e-06  1.1816624e-06  0.26764816     7.1327228     -9.1325131e-05 -0.00015650439 -8.5534717e-05  7.1322574      5.0960476e-05 -0.00015641039  3.2498967e-05  7.3610606      4.7406416      0.0048848167   0.018476347    9.2800887      2.0932851    
        65   0.026170788    2.7880936e-06  19323.553     -24461.045     -0.02575371     0.00042896219 -0.00013202151  0.44064897     7.7178316e-07 -3.8951942e-06  0.26764887     7.1325512     -3.7285386e-05  2.9234938e-05 -3.7337403e-05  7.1321551     -0.00010594908  2.122616e-05  -0.00010712855  7.3610801      4.7405148      0.003745414    0.018505334    18.540483      2.032871     
        66   0.026573415    4.5132467e-06  19313.682     -24461.042     -0.025758685    0.00017473876  3.0388247e-06  0.44078381    -1.1171894e-06 -4.2843403e-06  0.26765088     7.132435      -5.3989676e-05 -1.7831702e-05 -3.3021463e-05  7.1322918     -9.5793488e-05 -3.0725782e-05 -0.00011783114  7.3611354      4.7412367      0.0044128398   0.01795594     18.542802      1.9726497    
        67   0.026976043    5.0459919e-06  19330.151     -24461.044     -0.025764046    0.0003460529  -0.00021028024  0.44093515    -5.1490835e-06 -6.7986407e-07  0.26764696     7.1324447     -4.8113963e-05 -0.00014212755 -3.6187337e-05  7.1321951     -4.6164831e-06 -0.00014161396 -1.8698132e-05  7.3610276      4.7420144      0.0039568915   0.017826006    18.544711      1.9126135    
        68   0.02737867     6.043622e-06   19319.499     -24461.044     -0.025747005    0.00044192448 -0.00033891715  0.44046665    -5.4619592e-06 -6.1800025e-07  0.26764679     7.1324127     -6.7019825e-05 -0.00012073156 -3.2816557e-05  7.1321807     -1.3356102e-05 -0.0001502189  -1.6996706e-05  7.3610229      4.739542       0.0039505036   0.017842357    18.54327       1.852759     
        69   0.027781298    6.8360217e-06  19338.783     -24461.043     -0.025749711    0.00017032833 -0.00034577939  0.44053933    -3.0409896e-06  7.1627284e-08  0.26764855     7.1325666     -0.00011309875 -9.5853196e-05 -9.0566009e-05  7.1322788      3.33516e-05   -8.3635578e-05  1.9699473e-06  7.3610713      4.7399346      0.0045779684   0.01867096     18.54131       1.7930789    
        70   0.028183925    8.4968709e-06  19314.708     -24461.041     -0.025758266    0.00053847183  0.0001036841   0.44077288    -2.1030609e-06 -6.6135459e-06  0.26765028     7.1324192     -8.0285798e-05 -6.0717648e-05 -9.7399365e-05  7.1322653     -0.00016407639 -5.7839958e-05 -0.0001818907   7.3611187      4.7411759      0.0044432552   0.019744403    18.547908      1.7335547    
        71   0.028586553    9.328861e-06   19349.61      -24461.044     -0.025746693    0.00058870075 -4.2487948e-05  0.44045721    -4.6617115e-06 -7.4423424e-06  0.26764767     7.1324908     -0.00012094949 -0.0001336641  -0.00011212343  7.1321732     -0.00018388247 -0.00012820989 -0.00020468489  7.3610471      4.7394968      0.003677799    0.017413797    18.521711      1.6742197    
        72   0.02898918     8.0013492e-06  19298.77      -24461.042     -0.025761172    0.0005258548  -0.00035453274  0.44085091    -1.10997e-06   -2.3258493e-06  0.26765217     7.1323973     -7.4528033e-05 -4.3055069e-05 -9.3184903e-05  7.1322653     -4.6649088e-05 -3.0527229e-05 -6.3967252e-05  7.3611708      4.7415975      0.0050816219   0.017988644    18.548008      1.6150033    
        73   0.029391808    7.6746682e-06  19302.105     -24461.043     -0.02575689     0.00031107981 -0.00023323279  0.44073403     2.1906361e-06 -6.0119875e-06  0.26765127     7.1324294      4.4795556e-05  6.8142652e-05  5.7971772e-05  7.1322378     -0.00018121544  6.0248518e-05 -0.00016534619  7.3611461      4.7409762      0.0031695694   0.01784052     18.545682      1.5559348    
        74   0.014897218    2.829033e-07   19320.28      -24461.043     -0.025753254    0.00044075895 -4.9374808e-05  0.44063543    -1.6527667e-06 -4.8394401e-06  0.26764987     7.1324587     -3.3221258e-05 -6.0365267e-05 -3.524246e-05   7.1323215     -0.00010683555 -4.545563e-05  -0.00013309791  7.3611075      4.7404486      0.0029398317   0.014678407    9.2802371      1.5159203    
        75   0.015098531    4.5289763e-07  19332.092     -24461.044     -0.025753403    0.00075667132 -0.00018230904  0.44064238    -8.5806906e-07 -4.4463668e-06  0.26764705     7.132514      -6.9468193e-05 -2.0951691e-05 -6.3910715e-05  7.1321523     -0.00012523226 -2.3599259e-05 -0.00012228732  7.3610299      4.7404703      0.0032172357   0.017563731    18.542196      1.4561578    
        76   0.015299845    6.4297366e-07  19332.111     -24461.044     -0.025765923    0.00063667603  0.0001800366   0.44098717     1.8797857e-06 -5.2265235e-06  0.26764659     7.1324615     -5.8924208e-05  5.9265919e-05 -4.2201429e-05  7.1322643     -0.00011588432  5.1699276e-05 -0.00014374377  7.3610173      4.7422869      0.0045608321   0.019991824    18.544235      1.3965469    
        77   0.015501159    9.9637801e-07  19321.3       -24461.039     -0.025759496    0.00033846849  8.0441397e-05  0.44080842    -2.4949891e-06 -4.4171456e-06  0.26764855     7.1325261     -6.4039061e-06 -8.7195499e-05  2.1938385e-06  7.1322476     -0.0001210445  -6.8619061e-05 -0.00012148365  7.3610713      4.7413543      0.0043812001   0.018098372    18.551759      1.3370772    
        78   0.015702473    1.2222029e-06  19321.386     -24461.041     -0.025760842    0.00046071984  3.8513358e-05  0.44084658    -4.4120532e-08 -6.98072e-06    0.26764744     7.132468      -2.6884698e-05 -2.0036452e-05 -2.6877592e-05  7.1322178     -0.00015745091 -1.213436e-06  -0.000191989    7.3610406      4.7415497      0.0040820955   0.016374557    18.545961      1.2777549    
        79   0.015903786    1.2351419e-06  19305.678     -24461.041     -0.02575409     0.00028453931 -0.00034834775  0.44065847     1.8748085e-06 -5.6644689e-06  0.26764984     7.1324336     -1.4342059e-05  5.8831542e-05 -2.4318167e-05  7.1322016     -0.00012503315  5.1562389e-05 -0.00015578847  7.3611066      4.74057        0.0037625842   0.018315298    18.525173      1.2185855    
        80   0.0161051      1.4389268e-06  19346.361     -24461.041     -0.025759696    0.00056909775  3.374816e-05   0.44081095    -5.8065586e-08 -5.6836477e-06  0.26765153     7.1324643     -0.00011313677  3.0196061e-06 -0.00010788772  7.1322216     -0.0001352478  -1.5969633e-06 -0.00015631594  7.3611531      4.7413833      0.004562237    0.018675074    18.541451      1.1595339    
        81   0.016306414    1.8105055e-06  19333.745     -24461.041     -0.02575356     0.00051864691 -0.00019728556  0.44064272     1.8269822e-06 -5.3391142e-06  0.267651       7.1324768     -4.3956814e-05  4.0827819e-05 -4.3001523e-05  7.1322304     -0.00014359122  5.0247036e-05 -0.00014684032  7.3611387      4.740493       0.0047863098   0.02046334     18.531096      1.1006159    
        82   0.016507728    2.0920338e-06  19315.661     -24461.043     -0.025758888    0.00040621977  6.6854414e-05  0.44078878     7.4838874e-07 -4.6095779e-06  0.26765148     7.1324285     -2.9144214e-05  1.8663613e-05 -2.2875175e-05  7.1322481     -0.00010273729  2.0582749e-05 -0.00012677607  7.3611517      4.7412661      0.0042527587   0.019080134    18.542646      1.0418112    
        83   0.016709041    2.6376747e-06  19299.624     -24461.044     -0.025757752    0.0001009435  -5.4711133e-05  0.44076187    -2.5517822e-07 -5.2531568e-06  0.26764715     7.1323685      2.2369964e-05 -3.96852e-06    1.0165458e-05  7.1322234     -0.00013622172 -7.018103e-06  -0.00014447626  7.3610327      4.7411013      0.0038918907   0.01959975     18.551956      0.9831185    
        84   0.016910355    2.7469573e-06  19336.524     -24461.044     -0.025749185    0.00011967334 -0.00016178683  0.44052474    -5.7895308e-07 -6.6540275e-06  0.26764867     7.1324378     -0.00010517923 -1.1304009e-05 -0.0001048432   7.1322578     -0.00015165384 -1.5922802e-05 -0.00018300406  7.3610745      4.7398583      0.0043148031   0.01922598     18.544235      0.92454413   
        85   0.017111669    2.8769558e-06  19337.077     -24461.04      -0.02573735     0.00013439881  0.00014233785  0.44020288    -1.438751e-06  -6.0613749e-06  0.26764504     7.1323624     -4.7772862e-05 -2.6657154e-05 -4.1063555e-05  7.1322444     -0.00015969273 -3.9569609e-05 -0.00016670448  7.3609746      4.7381411      0.0034105328   0.017865983    18.549063      0.86607666   
        86   0.017312983    3.0614781e-06  19320.44      -24461.043     -0.025736693    0.00036436764 -6.2077279e-05  0.440183      -1.4058236e-07 -5.3517033e-07  0.26764684     7.1324215     -6.0019348e-05 -3.2028294e-05 -9.2050086e-05  7.1321993     -3.4838053e-06 -3.8664016e-06 -1.4718656e-05  7.3610243      4.7380458      0.003403898    0.017595551    18.54109       0.80771894   
        87   0.017514296    3.0633236e-06  19351.12      -24461.043     -0.025744345    0.00013061825  4.240061e-05   0.4403913      1.6566516e-06 -2.0801097e-06  0.26764899     7.1324401     -8.7233498e-05  2.0125136e-05 -7.1086513e-05  7.13217       -6.0700359e-05  4.5562475e-05 -5.7208737e-05  7.3610834      4.739156       0.0040360595   0.01838489     18.549956      0.74945903   
        88   0.01771561     2.697612e-06   19331.631     -24461.044     -0.025760917    0.00026987747  0.00021693784  0.44084663    -2.5101357e-06 -2.1128244e-07  0.26764943     7.1325963     -7.4272046e-05 -5.7872643e-05 -6.1060353e-05  7.1321579      1.0725762e-05 -6.9035635e-05 -5.8108481e-06  7.3610955      4.7415605      0.0032992217   0.017681161    18.545365      0.69129985   
        89   0.017916924    2.6158091e-06  19304.325     -24461.043     -0.02575145     0.00015756648  0.00024050137  0.44058214    -6.9418145e-06  8.677628e-07   0.26765356     7.1325568     -3.3909395e-05 -0.00018805795 -2.3033816e-05  7.1323843      2.3981864e-05 -0.00019091899  2.3865864e-05  7.3612089      4.7401869      0.0046284922   0.019490278    18.550387      0.63323411   
        90   0.018118238    2.8991918e-06  19313.401     -24461.042     -0.025739099    0.00020166345  0.00051102788  0.44024179    -2.6617682e-06 -1.8521867e-06  0.26765423     7.1325219     -7.1836278e-05 -5.1241213e-05 -5.4035588e-05  7.1322908     -3.9865947e-05 -7.3205947e-05 -5.0940228e-05  7.3612275      4.7383949      0.0034336259   0.017427474    18.538782      0.5752645    
        91   0.018319551    2.8249358e-06  19311.204     -24461.042     -0.025739391    0.00050351305  7.8791945e-05  0.44025568    -4.4605443e-06 -3.6257486e-06  0.26764837     7.1325549     -7.603951e-05  -0.00010552415 -7.7729997e-05  7.1321807     -7.6418084e-05 -0.00012267724 -9.9718058e-05  7.3610662      4.7384373      0.0039971153   0.020304247    18.494426      0.51739624   
        92   0.018520865    3.127544e-06   19343.105     -24461.042     -0.025748645    0.00045112147 -4.7613577e-05  0.44050664    -3.8093031e-07 -2.6411949e-06  0.26765192     7.1324675     -9.3596936e-05  8.6437225e-06 -8.9632863e-05  7.1323239     -6.7364771e-05 -1.0476631e-05 -7.2640125e-05  7.3611638      4.7397799      0.0036985517   0.016116961    18.550618      0.4595963    
        93   0.018722179    2.9137406e-06  19337.999     -24461.041     -0.025745057    0.00011907559 -0.00017433841  0.44041516    -4.3715802e-06 -2.9602864e-06  0.26764471     7.1324029     -4.8596069e-05 -0.00010344194 -6.6816444e-05  7.1322755     -7.7993256e-05 -0.00012023048 -8.1416018e-05  7.3609657      4.7392593      0.0065749443   0.019925311    18.531716      0.40188423   
        94   0.018923493    3.2301791e-06  19296.614     -24461.042     -0.025739643    0.00012586097  1.0121036e-05  0.440263      -6.8361945e-06 -9.6577626e-07  0.26764796     7.1324313      3.7881721e-06 -0.00017412865  5.7551945e-06  7.1323006     -9.0265489e-06 -0.00018801415 -2.6561503e-05  7.361055       4.7384737      0.0045374492   0.016829626    18.540298      0.34425036   
        95   0.021037287    3.4633422e-06  19341.15      -24461.044     -0.025745109    0.00020561743 -0.00029103002  0.44041467    -5.0734539e-06 -4.3877223e-06  0.26764664     7.1324159     -5.1470702e-05 -0.00013608153 -6.170384e-05   7.1322062     -9.6796835e-05 -0.00013953393 -0.00012067443  7.3610187      4.7392669      0.0047246372   0.01733715     18.51418       0.28669833   
        96   0.023384605    2.9588701e-06  19330.02      -24461.041     -0.02574969     0.00017246795 -0.00041337816  0.4405407     -7.3443694e-06 -4.8253013e-06  0.26764659     7.1323225     -5.0840497e-06 -0.00018110093 -7.5698554e-06  7.1322346     -0.00011331365 -0.00020199036 -0.00013270906  7.3610173      4.7399315      0.0037474818   0.016632939    18.547426      0.229216     
        97   0.025991014    2.7442091e-06  19316.299     -24461.042     -0.025745325    8.8312991e-05 -0.0004565725   0.4404185     -6.0813792e-06 -2.5995406e-06  0.26764875     7.132428       7.9024492e-05 -0.00017367074  8.2103357e-05  7.1322927     -5.0928554e-05 -0.00016725465 -7.1494517e-05  7.3610769      4.7392983      0.0036800695   0.017894961    18.545924      0.17180735   
        98   0.028884859    3.0597583e-06  19345.817     -24461.044     -0.025750469    0.0001580924  -0.00018511156  0.44055944    -6.8769356e-06 -6.1329505e-06  0.26764928     7.1323927     -4.7257606e-05 -0.00019330894 -3.6002146e-05  7.1322211     -0.00015974923 -0.00018913464 -0.00016867301  7.3610913      4.7400446      0.0037424699   0.016644374    18.547629      0.11446978   
        99   0.032097563    3.0838037e-06  19321.555     -24461.043     -0.025739166    0.00010157842 -0.00025037975  0.44024874    -3.8560276e-06 -1.0017892e-06  0.26764913     7.1322871      4.448036e-05  -0.00011784466  3.7775034e-05  7.1323313     -2.6328027e-05 -0.00010605137 -2.7551957e-05  7.3610871      4.7384046      0.004411087    0.019405434    18.543694      0.057201476  
       100   0.01621089     2.1788273e-07  19332.74      -24461.041     -0.025744104    0.00041855314 -0.00020994197  0.44038578     9.0119413e-08 -2.6249143e-06  0.26764788     7.1323113     -2.2632927e-05 -2.9301773e-05 -1.8071407e-05  7.1322699     -8.1674658e-05  2.4785317e-06 -7.2192363e-05  7.3610527      4.739121       0.003316345    0.015820934    9.2793484      0            
Loop time of 5.7708 on 1 procs for 100 steps with 72 atoms

99.9% CPU use with 1 MPI tasks x 1 OpenMP threads

Minimization stats:
  Stopping criterion = max iterations
  Energy initial, next-to-last, final = 
     -24461.0952137019  -24461.0427108423  -24461.0408860409
  Force two-norm initial, final = 0.78098118 0.015820934
  Force max component initial, final = 0.12850623 0.003316345
  Final line search alpha, max atom move = 0 0
  Iterations, force evaluations = 100 107

MPI task timing breakdown:
Section |  min time  |  avg time  |  max time  |%varavg| %total
---------------------------------------------------------------
Pair    | 5.755      | 5.755      | 5.755      |   0.0 | 99.73
Neigh   | 0          | 0          | 0          |   0.0 |  0.00
Comm    | 0.00047359 | 0.00047359 | 0.00047359 |   0.0 |  0.01
Output  | 0.0068019  | 0.0068019  | 0.0068019  |   0.0 |  0.12
Modify  | 0.00754    | 0.00754    | 0.00754    |   0.0 |  0.13
Other   |            | 0.001005   |            |       |  0.02

Nlocal:             72 ave          72 max          72 min
Histogram: 1 0 0 0 0 0 0 0 0 0
Nghost:           1263 ave        1263 max        1263 min
Histogram: 1 0 0 0 0 0 0 0 0 0
Neighs:              0 ave           0 max           0 min
Histogram: 1 0 0 0 0 0 0 0 0 0
FullNghs:        12096 ave       12096 max       12096 min
Histogram: 1 0 0 0 0 0 0 0 0 0

Total # of neighbors = 12096
Ave neighs/atom = 168
Neighbor list builds = 0
Dangerous builds = 0

label data
Total wall time: 0:00:20
