135
Lattice="11.898253856589696 0.0 0.0 0.0 11.898253856589696 0.0 0.0 0.0 12.912076929577747" Properties=species:S:1:pos:R:3:born_charge:R:9:forces:R:3 polarizability="36.41307747989351 -0.0013748404082997228 0.31295859519539126 -0.00012278873772640224 36.7286821061025 0.44299976279548453 0.322038168260731 0.42864261472293835 33.79205894713702" original_dataset_index=36 total_energy=-100927.11431155568 polarization="5.553642346957963 -3.451856118833831 4.552452441646395" stress="-0.027198624999622882 -0.000742596671602209 -0.0002455671573776011 -0.000742596671602209 -0.03012453679564871 -0.00042861426262409615 -0.0002455671573776011 -0.00042861426262409615 -0.016846093354765005" pbc="T T T"
Ba       1.95753090       2.03241617      -0.01148366       2.60720906      -0.10687674      -0.08750282      -0.09802018       2.74264194       0.07976259      -0.13602390      -0.01235545       2.79793454       0.17558119      -0.20125132       0.44218883
Ba       1.83602509       1.94993326       4.36439298       2.72820058      -0.06855911      -0.09995243      -0.02697920       2.75551148       0.08664609      -0.01342583       0.03383093       2.73447968       1.41518319      -0.13651724      -0.06602995
Ba       2.03346975       1.91002868       8.69874488       2.67943814      -0.17615893       0.10196064      -0.22101906       2.62240077       0.08535866       0.08928792       0.17414868       2.99255605       0.05668493      -0.25684142      -0.32243280
Ba       1.93007491       6.10708655      -0.02246713       2.58408425       0.19692441       0.09672580       0.02154817       2.81629810      -0.07578146       0.04987882      -0.16182628       2.86295642       0.16400146      -1.21188194       0.73467621
Ba       1.85883080       5.78899852       4.43908440       2.67747457       0.20261102      -0.19952962       0.09743291       2.80983063       0.18996453      -0.20112822       0.22196278       2.76124562       1.41796891       0.36156576      -0.48484156
Ba       1.92806434       5.87954589       8.69635061       2.60654255       0.21364696       0.05634864      -0.01446783       2.63376261      -0.03027294       0.03382138       0.09325826       2.92676715       0.43175296      -0.49199246      -0.08401846
Ba       2.10321920      10.18527980       0.22235929       2.32625646      -0.00103074       0.06209850      -0.22158245       2.90028812      -0.18148453       0.02445968      -0.16325947       3.03739185      -1.35380049      -0.49589971      -1.07811163
Ba       1.97651850       9.96993528       4.27826946       2.77638247      -0.29758325      -0.02412137      -0.19506390       2.70971047      -0.11147755      -0.14003440       0.00737315       2.76400961      -0.21521649       0.97478078       0.64487102
Ba       1.90922358       9.76107454       8.49303957       2.62234542      -0.08454033       0.11456121      -0.21965095       2.70208934       0.02088193       0.13606638      -0.11884655       2.79188765      -0.05218008       0.71478770       0.70191745
Ba       6.11205826       2.03273840       0.10533804       2.72311610      -0.06474655      -0.12599970       0.17454607       2.68262112       0.07847178      -0.03256288       0.00247141       2.98065239      -0.34415266      -0.20390649      -0.33075981
Ba       5.91623293       2.22279717       4.38787894       2.75652955      -0.05221226       0.07586956      -0.13812042       2.63832232      -0.08548532       0.10116177      -0.00278570       2.93630191       0.16032533      -1.17186121       0.23350022
Ba       5.92235811       1.94721589       8.73736130       2.70546445      -0.08805570       0.11744856      -0.11052024       2.69182674       0.07304307      -0.09412619      -0.01096477       2.89550063       0.52847806       0.22982694      -0.16167075
Ba       5.86374010       5.87890628       0.01240797       2.69653565       0.09543357      -0.08852246       0.20346335       2.51097773       0.06330697      -0.07943017       0.09634384       2.95687997       0.01313533       0.09515819      -0.46650383
Ba       5.64164962       5.90177596       4.04040293       2.79316023       0.40405059       0.03262561       0.31958380       2.55996377       0.10114481      -0.01105019      -0.07614586       2.79552363       1.00804860       0.38972993       1.19579454
Ba       6.07348913       6.01539071       8.79859943       2.68032391       0.10040557       0.10375659       0.10964629       2.66054191      -0.19759138       0.09330028      -0.04128911       2.80590362      -0.77214797      -0.32198703       0.08061749
Ba       6.06937050       9.91034977      -0.00012687       2.52671260       0.09230632       0.04436448       0.10055415       2.81500085       0.02794557      -0.06088444      -0.10828856       3.00703093      -0.14929487       0.70477055      -0.18567328
Ba       5.83696694       9.84497568       4.47787960       2.73948272      -0.04328456       0.10852825      -0.02329761       2.44375069       0.01448272       0.05035115      -0.02247015       2.89515360       0.47859854       0.72155371       0.08351427
Ba       5.92213527       9.96498627       8.74798519       2.64881034      -0.01762908      -0.09416500      -0.12067418       2.79834723      -0.10709376      -0.05504059       0.00346820       2.76483940       0.79513583      -0.64899818      -0.33689802
Ba       9.89956403       2.08587885       0.06277384       2.78605170       0.02394868       0.11199052      -0.14860352       2.68244948       0.15157611       0.06691669       0.11062622       2.86250909      -0.61506990      -0.21854274      -0.06365471
Ba       9.78168878       1.95742114       4.42699750       2.70065690      -0.14339669      -0.16247757       0.05575455       2.67317290       0.01205819       0.08036334       0.02707700       2.89970516       0.31416768       0.44925037       0.43672122
Ba       9.89876799       1.85580030       8.69348280       2.69692437       0.12744942       0.19185473       0.26969713       2.85504098      -0.00272569       0.06391617      -0.02862940       2.80849846       0.43580866       1.12276837      -0.34430876
Ba      10.00365401       6.20560976       0.02587180       2.92910613      -0.04550121       0.08701364      -0.04611420       2.62941812      -0.02507561       0.07109148      -0.16429515       2.76523590      -0.30850211      -2.07890371       0.47150261
Ba      10.16478928       5.91434320       4.67187295       2.69237666       0.10114469      -0.05455226      -0.05320314       2.78193324       0.22354326       0.01786923       0.37782370       2.72122736      -2.53863882      -2.11145035      -3.00699144
Ba      10.11956878       5.83144895       8.71394582       2.62622510       0.18001634       0.00896209       0.20367029       2.81653654      -0.07688924      -0.22325471      -0.08825308       2.78140450      -1.18156354      -0.70613477       0.42131995
Ba      10.11754503       9.86873327      -0.00772471       2.83943616      -0.13453660      -0.05306784       0.05534032       2.68039175       0.06141129      -0.19498505       0.01445161       2.86489142      -0.97539570       0.31665046       0.41843453
Ba       9.82537062       9.94607208       4.19221775       2.61062488      -0.29247137      -0.23956413      -0.02059943       2.76985274      -0.06796768      -0.05495466      -0.13515451       2.78996908       0.48196047      -0.55181572       1.42157691
Ba       9.84712576       9.93840179       8.54957080       2.68629061      -0.04157449       0.00710129       0.21738676       2.92121321      -0.06696969      -0.07180168       0.04059101       2.71561916       0.24370699      -0.46785396       0.21619125
Ti      -0.16177651       0.01414295       2.33827498       5.31456003      -0.72231134       0.33546144      -0.22419998       5.99783006      -0.11081178       0.44628637      -0.05740424       4.35928058       1.16085580       0.61355803       1.27572220
Ti       0.13808154      -0.10938951       6.55279222       5.63595313       0.27531849      -0.12064238       0.12231985       6.00426378       0.19054961      -0.29523616       0.16904501       4.58872647      -0.10453006       0.59065618      -1.25501480
Ti      -0.07057226      -0.12239016      10.95669592       5.99743584       0.07635151       0.46200772       0.01167879       5.93925016       0.34971177       0.43268220       0.70270148       4.10169769       0.37792958       0.88070599      -0.24630630
Ti      -0.06613122       3.82914011       2.26171004       5.97947445       0.05579972       0.40835902      -0.00484236       5.91822539       0.73412188       0.53638660       0.56290430       4.76259118       0.54578292       0.77663767       0.44587203
Ti       0.21123663       3.80560757       6.56371648       5.29285348       0.26529623      -0.40386491       0.36191087       6.11474878       0.51522049      -0.62835962       0.24376576       4.73852536      -1.94928335      -0.22274628       0.90779952
Ti       0.03333976       3.73337022      10.93634627       6.20930715      -0.17394930      -0.20579215      -0.15796995       5.85659901       0.48062811      -0.05281020       0.49461331       4.38576639      -1.27873117       2.07189789       0.00596825
Ti       0.11542505       7.80869289       2.58080819       5.17503342      -0.42807705      -0.26854454      -0.29889782       5.16577107       0.43376957       0.09249537       0.49302476       4.14289514       1.23328666      -0.03296532      -0.19886265
Ti      -0.04553883       7.79313919       6.41865879       5.89075291       0.27118332       0.10500104       0.07407676       6.28573515      -0.08162341      -0.03798720      -0.05197491       5.87014489      -0.17560399       1.08389962       1.38307324
Ti       0.01526126       7.78950425      10.83979601       6.22941316      -0.19365997       0.03878127       0.00603915       5.36030728       0.73593651       0.23981933       0.81086622       4.13571465      -0.30122500      -0.03657438      -2.98327563
Ti       3.91032679       0.20838669       2.23324564       4.88150876       0.51167061       0.54222375       0.47919058       6.05821119      -0.18381001       0.66876503      -0.31631409       4.40462260       0.65580836      -0.99039657       1.59537015
Ti       4.13300793      -0.09152562       6.63500536       6.15204623       0.35394992      -0.04498607       0.32397963       5.32206039       0.13446776      -0.26440047       0.29636820       4.19525286      -0.79611878       1.20842871      -0.71779549
Ti       3.94863866      -0.05328355      10.96407121       6.06146003       0.10287617      -0.06025397       0.08573775       6.15073857      -0.00519445       0.09635223      -0.08887444       4.32723897      -0.54114373       1.52313112      -1.08318994
Ti       3.92154832       4.01693230       2.24654947       6.13964983       0.13680301      -0.00867134      -0.03449115       5.54495970      -0.36729760       0.06846214      -0.56820802       4.17439475      -1.48574363       0.68147315      -1.16114320
Ti       4.09103024       3.91531101       6.64483664       5.29663843       0.43560132      -0.29538465       0.40562925       5.59566851       0.54711869      -0.35748769       0.68783679       4.25566312       0.14210903       0.14810681       0.23497298
Ti       3.87918058       3.92309793      10.89505929       5.88665191       0.04644390       0.30349913       0.06363439       5.96269582      -0.05113664       0.20049368      -0.28197282       4.36982370       0.93395264       0.44449749      -1.58998840
Ti       3.91142971       8.26190182       2.14014293       5.35365545       0.12613929      -0.19759591      -0.03619050       5.27578296      -0.22430551      -0.21397692      -0.40369223       4.51121305      -1.74525308      -1.72342377      -0.84359106
Ti       3.89428803       7.85771100       6.74264491       6.09587605      -0.06467135       0.56542303      -0.37111557       5.67196547       0.18815157       0.57377842       0.44967166       3.95021014       0.28277724      -0.60263240       1.39733047
Ti       3.81751613       8.02720242      10.85381118       6.34714506       0.39644599       0.19083437       0.23745266       6.06983584      -0.33042057       0.01244797      -0.32600568       5.24743805       0.53725822      -0.55836561       0.54080132
Ti       7.89841660      -0.15342045       2.47461420       5.49791627       0.07523541       0.54026786      -0.22311283       5.00442898       0.49111512       0.71306135       0.56444253       4.21614187      -0.47749726       1.01811278      -0.26219341
Ti       7.98737808       0.05737773       6.62234118       6.33932007      -0.15098947      -0.13248454       0.16150118       6.26341829      -0.05424367      -0.26288600      -0.12169129       4.80302969      -0.62091987       0.22273170       0.09956736
Ti       7.92312993       0.03537565      10.84287927       6.07264732       0.02465341       0.19830708      -0.03422922       5.78961934      -0.25087449       0.31107222      -0.34941829       4.70290768       0.44696565       1.16518819       0.17552937
Ti       7.88380554       3.96366407       2.28106186       5.62912215      -0.65638247       0.11410485      -0.54848552       5.95024982       0.11437811       0.31254189       0.28529447       4.42035402       0.53808487       0.88559084      -0.87038140
Ti       8.05295146       4.12810452       6.71005175       5.32176704      -0.36632082      -0.09033941      -0.00612238       5.90590111      -0.47906688      -0.44225797      -0.16138262       4.07542628      -0.11390605      -1.86332221      -2.36770668
Ti       7.89350434       4.00072286      10.91668855       6.28632899       0.18199382      -0.05929522       0.17166589       6.54606271      -0.20828221       0.09364591      -0.19752397       4.19046564       0.67464751      -0.10938955       0.81545197
Ti       7.66130362       7.85313681       2.17266333       4.27338482      -0.27250835       0.59177938      -0.34326834       5.71907572      -0.29128619       0.61537650      -0.01960875       5.11510014       0.94365316      -1.19001090       0.11010549
Ti       7.90813360       7.86181473       6.67549883       6.37904676      -0.24570263      -0.61337844      -0.39252260       6.38152064       0.52797002      -0.32918582       0.25135205       4.02411255       0.38441025       0.89734672       1.63752089
Ti       7.92407539       7.97141033      10.97522259       5.86462999       0.10398909       0.00811050       0.14603284       6.18381895      -0.42384098      -0.05850437      -0.62693653       5.12299572      -0.33184912      -1.39288142      -1.04041031
O        0.06849205       1.97410469       1.98207485      -1.70173728       0.05832423       0.06769377       0.01086193      -5.06031876      -0.11269669       0.05626873      -0.02439983      -1.91354674       0.33842406       0.84371394       0.42644214
O        2.08844480       0.06115333       2.14711636      -4.03614223      -0.19411721      -0.04916075      -0.12478672      -1.86615514      -0.15492247      -0.37596168      -0.13734556      -1.83504046      -0.49049986       0.53572771      -0.43446089
O        0.01478798       0.10622106       4.17613630      -1.95166151      -0.04749383      -0.39508032      -0.13070662      -1.92807875      -0.20478866      -0.25319833      -0.10448259      -3.69789960      -0.33693482      -0.08103377      -0.08341904
O       -0.02500571       1.99116798       6.24056990      -1.88546927      -0.22645987      -0.06775086      -0.22862713      -4.99754730      -0.26035636       0.02042354      -0.34576440      -1.82237859       0.11449130      -1.39549277       0.46801906
O        2.10240568       0.09008680       6.40239557      -4.83136636      -0.10091387      -0.07155457      -0.06297622      -1.98671018       0.06748710       0.03705975       0.00153602      -1.71198595      -1.59954998      -0.62294717      -0.33871548
O        0.06772845      -0.02773985       8.29420333      -1.83207028       0.02080488       0.20584867       0.02447735      -1.76930835      -0.30957065       0.12083683      -0.16244184      -3.60758998       0.02381013      -0.25398150       0.81677633
O        0.09924908       1.92315621      10.54738590      -1.96566455      -0.07236819      -0.01842724      -0.02066180      -4.85580585      -0.36461872      -0.00320377      -0.42697879      -1.84142087      -0.71970309      -0.59216736       0.55104337
O        2.02143624      -0.03262155      10.88956580      -4.99548817       0.01070857      -0.03786544      -0.00847897      -1.90153736       0.10262473      -0.14994067       0.08268564      -1.67840195      -0.11684383      -0.04570875      -0.46431767
O       -0.16176545       0.18919918      -0.15473121      -1.85448124      -0.04120752      -0.03722183      -0.02082052      -1.96148464      -0.49171005       0.05339130      -0.31442101      -3.62607824       0.16922489      -1.16948523      -0.07550209
O        0.05352955       5.95167782       2.20661140      -1.51437493       0.23579487       0.04859485      -0.13304522      -4.52882791      -0.41540602      -0.06493020      -0.61165333      -1.93988328       0.27964762       1.09448743       0.13128760
O        1.99430883       4.13259446       1.95258538      -4.85189254      -0.11354315      -0.03396520      -0.26088693      -1.83487778      -0.07809920      -0.16359137      -0.02405818      -1.85801023       0.00912486      -1.25209758       0.02879909
O        0.15835086       3.93449899       4.22278974      -1.94388372      -0.02738824      -0.18920351      -0.01394291      -2.22433172      -0.32098123      -0.22635034      -0.23768832      -3.71892655      -1.16299367      -0.50085486      -1.78778608
O        0.02122627       5.76991955       6.36641169      -1.99420744       0.08257872      -0.16012486       0.28119994      -4.68832193       0.07152441      -0.08228947       0.05612097      -1.96288300       0.20215080       1.73702176       0.42181525
O        1.98729370       3.93350830       6.34810363      -4.52777500      -0.21192285       0.04573778      -0.25909126      -1.85438934       0.09193915       0.29905109       0.11307782      -1.79962968       1.54832155       0.24706645       0.24288622
O        0.09696615       3.85636714       8.38365816      -1.89135588       0.07827818       0.18763341       0.06830217      -1.94572702      -0.21902839       0.14548895      -0.11517304      -3.77288306       0.11982709      -0.09688172       0.07729783
O        0.10676354       5.81737891      10.63168530      -2.04669337       0.13153461       0.01485016       0.03472101      -4.39890534      -0.11389351      -0.02927374      -0.26848646      -1.94575887      -0.20165478       0.91415739       0.47534231
O        1.91044235       3.81345582      10.60756523      -5.11208351      -0.17720036       0.13873526      -0.09947368      -1.94919411       0.04978890       0.03911668       0.04222834      -1.76882862       1.07701295       0.13607424       0.26087999
O        0.02504309       3.94457799      -0.11437844      -1.83059592       0.00920652      -0.00415525       0.01283048      -1.85962019      -0.24666900       0.02275482      -0.15579095      -3.84246945      -0.01447856      -0.41232794      -0.99945940
O        0.06158142      10.10810612       2.40585149      -1.86631629       0.56789335      -0.00731964       0.33000630      -4.29468201       0.16946636       0.01853346      -0.16118933      -1.72026867      -0.15014547      -0.82266257      -1.33315345
O        2.00681182       8.23349472       1.76744539      -4.28405122      -0.36407360       0.31028413      -0.29481737      -1.97258439       0.05502589       0.17477983       0.10680068      -2.05507683      -0.80953139      -0.90035709       1.28003818
O        0.06677450       7.95025384       4.46302237      -1.64809986      -0.10521815       0.06413010      -0.07345703      -1.88130321      -0.14637084       0.16279987       0.14682759      -4.76870564       1.15641262      -0.62389327      -2.12755319
O        0.01251537       9.80069607       6.31296272      -1.91006163      -0.22334800      -0.05481864      -0.23447469      -5.25884215      -0.11106928      -0.01105670      -0.22818141      -1.73327549       0.06593034       1.29714600       0.47180356
O        1.98812707       7.89727532       6.41997788      -5.15169215      -0.16538260      -0.40806322       0.21556731      -1.80963013      -0.01899746      -0.69209471      -0.09306820      -1.71953776       0.40651342      -0.11174252       0.65648640
O       -0.35688478       7.75366991       8.24437565      -1.93617908      -0.14694593       0.26214989      -0.16771927      -2.12471116       0.09286998       0.32157701       0.15182153      -3.77151090       1.57699402       1.20113898      -0.40462088
O        0.01672788       9.96586160      10.82500473      -1.85579580       0.14894537       0.13922572       0.07399994      -4.63247963      -0.34798539       0.09147345      -0.53383348      -1.61024483       0.16907686      -0.06142247      -0.92653213
O        1.95460119       7.83175958      10.50339876      -5.17326127      -0.30091678      -0.12252476      -0.30613195      -1.94464819       0.04260577      -0.22477545       0.03277337      -1.86961041      -0.00054745       0.39729850      -0.48077938
O        0.07094116       8.06668911      -0.42834962      -1.70753914       0.11564325      -0.17931602       0.10754063      -1.92821589      -0.52699488      -0.05170913      -0.35657250      -3.29705264       0.01568870      -0.53953533       3.47029089
O        4.18044791       1.97590740       2.16044236      -1.73442307      -0.46804297       0.03741581      -0.22668428      -5.07115655       0.08206221       0.02632814       0.45477705      -1.60989175      -0.35043623       1.53667132      -1.26594090
O        6.19058601      -0.18789980       2.05544897      -4.09363262       0.06444647      -0.57665541       0.18571308      -1.75882925       0.03863721      -0.78340375       0.00165552      -1.77877102      -1.06382453       1.00685150      -0.33078091
O        4.10308360       0.17274236       4.02574489      -1.81322313       0.07138312      -0.47211247       0.07459815      -1.90319406       0.30739833      -0.34104089       0.15786447      -3.59785835       0.05837448      -0.90059843       0.52791077
O        3.95614348       2.10406406       6.30598771      -1.83815005      -0.34235511      -0.05400882      -0.14156242      -4.40126063      -0.23400480       0.02065650      -0.46941459      -1.77589866       0.44988329      -0.45862605       0.55803606
O        5.99561084       0.09276653       6.51679511      -5.08672374      -0.24973590       0.01537567      -0.21882859      -1.82457893      -0.02556442       0.29768709      -0.04246837      -1.63005422      -1.70340207      -0.42952309      -0.26612525
O        3.96426810      -0.13906480       8.38309694      -1.84758229       0.07510641       0.14635328       0.10892103      -1.79843826      -0.11074237       0.15926672      -0.01754244      -3.53231401      -0.04442455       0.31558081       0.75508458
O        3.95479327       1.86009372      10.53037263      -2.11219463      -0.12103119       0.09490796       0.11683152      -4.73882381       0.16999496       0.04509407       0.27663628      -1.87249729       0.02124829      -0.11619088       0.37358494
O        6.03801944      -0.02167526      10.59422899      -4.85876077      -0.11806450      -0.10060092      -0.26754525      -2.06761772      -0.06743198      -0.20357783      -0.00955188      -1.83295251      -0.58358459      -0.69304345       0.43251436
O        4.06723062       0.09899880      -0.17847044      -1.86544453      -0.04736776      -0.30233001      -0.04403436      -1.75542721       0.03163691      -0.05618112      -0.10801038      -3.85655457       0.28858316      -0.33281623       0.60863685
O        4.00574476       5.92438207       1.93248105      -2.00778691      -0.19004969      -0.04421690      -0.05313656      -4.06923976       0.28868103      -0.08221171       0.48835555      -1.96648883      -0.03975027       0.27618028       0.26342530
O        5.88392902       4.00885645       2.00321270      -4.74132710       0.16307442       0.10541760       0.18873562      -1.99879230      -0.05871921      -0.00720421      -0.01687482      -1.85505157       0.80473090      -0.26522081       0.44525778
O        3.81977119       4.00967575       4.01255772      -1.95417657      -0.02792653       0.04575305       0.00274772      -1.83643189       0.10556970       0.08691278       0.08591836      -3.53250024       0.32721946      -0.06430318       0.86802443
O        4.01530196       6.03983302       6.52779237      -1.78695306       0.16004255       0.03711941       0.14899912      -4.67232211      -0.32817813       0.04215380      -0.56014819      -1.60692964      -0.66408440       0.69204814      -0.60752154
O        5.91105239       4.13159382       6.27249154      -4.39378991      -0.21704647       0.13994186      -0.19013549      -1.90105943      -0.01979717       0.41958278      -0.03205463      -1.90438110       0.21684090      -0.17835930       0.03104604
O        4.13518495       4.02555400       8.44103938      -1.76219012       0.08114566       0.10391826       0.08110325      -1.83012341      -0.20193758       0.04848206      -0.16019380      -3.65406865      -0.60093626      -0.37376085       0.05195039
O        3.89559523       5.82381809      10.74619148      -1.99855656       0.05888503      -0.03039576       0.03771132      -4.73721817       0.10327822      -0.00934882       0.29979294      -1.73340777       0.03563145       0.42293536      -0.29310103
O        5.98542952       3.82485780      10.81402212      -4.91628799      -0.17564167      -0.12070743      -0.11825928      -2.02689732      -0.06250542      -0.21009200      -0.02823598      -1.73593149      -0.61418489       0.53925701      -0.61905942
O        3.94457591       3.87487970      -0.30876415      -1.81073357      -0.10871613      -0.04009236      -0.10568252      -1.64395147       0.27472601      -0.10772746       0.11570120      -3.66416463      -0.30408042      -0.43319498       1.91841624
O        4.02029130      10.10303668       2.01802848      -1.79308013      -0.35157976      -0.04265902       0.00551134      -4.73462535       0.08824112      -0.12082031       0.17979599      -1.68882767       0.55554659      -1.21247693      -0.14412998
O        5.90039580       8.02566616       1.73363677      -4.40097804       0.32174885      -0.06221708       0.69895443      -1.86449544       0.18566216      -0.29855131       0.11463867      -1.80928976      -1.13459014       0.26550105       1.20238801
O        3.51593453       8.07024910       3.86655742      -1.74812961       0.15870807       0.10542495       0.10381955      -1.88411117       0.20811988       0.46522043       0.17869976      -3.39182762       2.22296980      -0.66885586       0.57463983
O        3.93636384       9.95119041       6.32493937      -1.99636692      -0.26124984       0.08877777      -0.25265938      -4.56288358       0.00918828       0.08675451      -0.25022927      -1.89773162       0.55055134      -1.16394613      -0.01253602
O        6.08256626       7.77797640       6.71698752      -5.23217177      -0.00350348      -0.06081882       0.21883798      -1.78923296       0.18292061      -0.05619466       0.13543119      -1.56229055      -1.58563746       0.95088312      -1.13621061
O        3.95739009       8.00476285       8.63998375      -1.93698372      -0.02925584      -0.13960869       0.04202590      -1.74298857      -0.31162255      -0.08717954      -0.14602355      -3.87572059      -0.19710483      -0.42737192      -2.16267401
O        3.88852328       9.89469101      10.57120043      -1.81823513      -0.14911578       0.07226184      -0.22808896      -5.39092171      -0.12038327       0.06000564       0.02408958      -1.79400628       0.17168103       0.34193298       0.73534876
O        5.87894171       7.94198390      10.77687724      -4.94970562       0.01722954      -0.13878794       0.09865403      -1.92086029      -0.06247992      -0.04042795      -0.04938450      -1.89708217       0.64428953      -0.00731116       0.30713968
O        3.57835703       7.99909996      -0.21703532      -1.81469569      -0.07795422       0.25421006      -0.03491926      -1.99477081       0.05818674       0.27797428      -0.09366226      -4.03155253       1.84893649       0.63948182      -0.84424052
O        8.00008672       2.14356115       2.01583988      -2.01546444       0.23828645       0.05551732       0.13843793      -4.31934856      -0.17307185      -0.05172107      -0.32848321      -1.90932602      -0.64839983      -1.27918385       0.48743185
O        9.92848094       0.24297797       2.29990988      -4.89642206       0.08104888       0.14216170       0.02406896      -1.85407474       0.08343253      -0.37119644       0.05222052      -1.68697965      -0.91073669      -0.96576809      -0.49722598
O        7.73231154      -0.04299650       4.33834394      -1.76010087      -0.04197949      -0.08945928      -0.04110291      -1.80514395      -0.25451088      -0.00597623      -0.14517280      -3.65475727       0.73060623      -0.32685663      -1.69080847
O        7.83216722       1.97747560       6.33727778      -1.96990022       0.07755327      -0.05447052       0.11156641      -4.69660860       0.23247104       0.00058775       0.21364089      -1.93305023       0.34106506       0.33833877       0.14819105
O        9.83411593      -0.05114133       6.38703399      -4.80204792       0.20435445       0.22149338       0.07166573      -1.91454004       0.01561265       0.36507944       0.03581495      -1.84614683       1.06235050      -0.00581967      -0.17173175