135
Lattice="11.898253440856934 0.0 0.0 0.0 11.898253440856934 0.0 0.0 0.0 12.912076950073242" Properties=species:S:1:pos:R:3:born_charge:R:9:forces:R:3:energies:R:1 polarization="-0.5759540920165264 -0.2827806213285584 62.68170328569676" polarizability="38.756975892639275 -0.0011093887743844667 0.0628180137481827 -0.0011201315890699425 38.75265022047604 0.022569124853471477 0.06281286509993016 0.022596262520302564 33.20128802753781" original_dataset_index=0 energy=-100941.47043281105 stress="-0.001266979074108194 -2.1491275446932006e-06 0.0002536715106206165 -2.1491275446932006e-06 -0.0012321440677212508 9.060900371025362e-05 0.0002536715106206165 9.060900371025362e-05 -0.0012334407927991006" pbc="F F F"
Ba       1.98831761       1.98268414       0.07889882       2.66206557      -0.00781484       0.01110277      -0.01763302       2.66268381       0.00228472       0.00762115       0.00321244       2.91213421      -0.04609871      -0.01612613      -0.10968198    -747.94141838
Ba       1.97675359       1.98714983       4.37495327       2.67207172       0.01128713      -0.00244051      -0.00188095       2.66262809      -0.00481075       0.00361442       0.00145683       2.90758502       0.07161288      -0.07600310       0.01031180    -747.93749814
Ba       1.97460783       1.98534608       8.67106533       2.66384822       0.00162175       0.00653152       0.00829102       2.66998641       0.00600025       0.00864527      -0.00216459       2.89946914       0.04153586      -0.05216838       0.09856826    -747.92651537
Ba       1.97393417       5.94116449       0.07520469       2.66170012       0.00008033       0.00528460      -0.00418325       2.67092367       0.00594363       0.00279415       0.00570783       2.90150053       0.01455167       0.04072923      -0.04426535    -747.93272020
Ba       1.98053527       5.94371462       4.37454271       2.66956039      -0.00990235      -0.00290433      -0.00393754       2.66182025      -0.00528688       0.00139009      -0.00153554       2.90534405      -0.04098410       0.03645223      -0.05782447    -747.92128656
Ba       1.97795570       5.95674562       8.68149185       2.65688422       0.00444965       0.00121118      -0.00038473       2.66762773       0.00210972       0.00796315      -0.00208786       2.88837673      -0.00096242      -0.04544988       0.06660804    -747.93730310
Ba       1.97925520       9.91170692       0.07907026       2.66267332       0.00216148       0.00629235       0.00083314       2.66829200       0.01052992       0.00432117       0.00770221       2.89918041       0.07917718       0.04532994      -0.04961328    -747.93786077
Ba       1.98800480       9.90764141       4.36969614       2.66714234      -0.00088053      -0.01293051       0.01700770       2.65742856      -0.00377741      -0.01381909       0.00080389       2.91236539      -0.03767344       0.08654893       0.02306175    -747.93357063
Ba       1.97884643       9.91950512       8.68109703       2.65494146      -0.00158450       0.00889126       0.00623871       2.66026657      -0.01017015       0.00188889      -0.01198271       2.90652460       0.00561413       0.02207916      -0.02210568    -747.92800585
Ba       5.94269419       1.98459542       0.07703132       2.66182651       0.01178345      -0.00244230       0.00811015       2.66604114      -0.00285670      -0.00058113       0.00710817       2.90301989       0.02823725      -0.00474410      -0.01496543    -747.94141132
Ba       5.94512749       1.97865176       4.37948751       2.66772182      -0.00019842      -0.00497816      -0.00213456       2.66425748       0.00011954      -0.00561207      -0.00330460       2.91127489       0.00226312       0.01969919      -0.03265648    -747.92915228
Ba       5.94290972       1.99122679       8.68815136       2.66338787       0.00455676       0.00226433      -0.00099662       2.66787204       0.00727709       0.00166398       0.00290557       2.89841801       0.00844603      -0.04416780      -0.01783214    -747.93206884
Ba       5.94863939       5.95814705       0.06146764       2.66775331       0.00576847      -0.00502494       0.00408660       2.66898879      -0.00549968       0.00003847      -0.00680707       2.89294348      -0.03655990      -0.10617539       0.05115409    -747.93342061
Ba       5.94819069       5.94383478       4.36956453       2.67145711       0.01154491       0.01343798       0.00283419       2.66238822      -0.00737258       0.00621122       0.00049903       2.90063738       0.02169208       0.02977581       0.05715133    -747.93098540
Ba       5.95114613       5.95077372       8.68717194       2.66167791      -0.00955914       0.00171287      -0.01117825       2.66295720       0.00684664      -0.00222007      -0.00136960       2.90442476      -0.01592689      -0.01188604      -0.05835323    -747.92858411
Ba       5.95284367       9.90564823       0.07475266       2.66875841      -0.01140598      -0.00005776      -0.00472915       2.66218026       0.00169553       0.00229889       0.00676175       2.90355292      -0.09236907       0.13720399       0.02124469    -747.93401665
Ba       5.94381523       9.90996647       4.37112617       2.66025365      -0.01384304       0.00182659      -0.01361919       2.67164690      -0.00196991      -0.00022924       0.00154853       2.91085169       0.06176227       0.05044094      -0.01310878    -747.93874250
Ba       5.94139624       9.91432095       8.67740154       2.67521199      -0.00499618       0.00365041       0.00017426       2.65928954       0.01200470       0.00827081       0.00903673       2.90176281       0.02281172      -0.00012075       0.00246335    -747.92793922
Ba       9.90648651       1.98178637       0.06615432       2.66299738      -0.00190038       0.00473111       0.01305846       2.66613159      -0.00515734       0.00868167      -0.00365627       2.90725248       0.04267069       0.08404930      -0.01258932    -747.94079105
Ba       9.91142559       1.98535299       4.37575388       2.66087290       0.01322957      -0.00062386       0.00597713       2.66148832      -0.00149533      -0.00184920      -0.00105546       2.91477031      -0.01520932      -0.06609779       0.01364227    -747.93181484
Ba       9.91653633       1.99047434       8.67793941       2.66240720      -0.00122896      -0.00648142      -0.00345658       2.66200015       0.00578765      -0.00669125       0.00153421       2.90915385       0.00766611      -0.03669195       0.00480092    -747.93585582
Ba       9.92449379       5.95570278       0.07949149       2.66592484       0.01706160      -0.00338279       0.00769932       2.65592657       0.00710267      -0.00725879       0.00661594       2.90850774      -0.01891215      -0.09118512      -0.07050684    -747.93253182
Ba       9.91961861       5.94320917       4.37930346       2.65967640      -0.00268529      -0.00096083      -0.00058653       2.65951063      -0.01615829      -0.00645665      -0.00658403       2.90335990      -0.01260266       0.12094144      -0.01068348    -747.93385027
Ba       9.92004585       5.95222664       8.67134380       2.65907209       0.01208584       0.00807000       0.00705045       2.67472196       0.01285408       0.00782006       0.00256144       2.89801722      -0.02198688      -0.04237160       0.02608021    -747.93398515
Ba       9.90710831       9.91098499       0.06233238       2.67582276      -0.01604758      -0.00125667      -0.00708780       2.66095023      -0.00205873       0.00050444      -0.00215339       2.89717789       0.01978450       0.04312982       0.06147474    -747.93340264
Ba       9.91564560       9.91715813       4.37157059       2.65705624      -0.00863168      -0.00037261      -0.00408912       2.66927206      -0.01298255       0.00805499      -0.00589448       2.90143855      -0.05059785      -0.04362239       0.03780571    -747.94467374
Ba       9.90683842       9.90993309       8.67565441       2.66590222      -0.00523900       0.01042579      -0.00574422       2.66255217       0.01175109       0.00799060       0.00786641       2.90882272       0.06799969       0.06026490      -0.03568533    -747.94026993
Ti      -0.00350316      -0.00516550       2.29678941       6.42196833      -0.01021735       0.00881222      -0.00893163       6.45870827       0.02873392       0.00935263       0.04132553       4.32517143      -0.01870487       0.06360124      -0.14621395    -744.69372718
Ti       0.00635253       0.00428174       6.59185791       6.45045267      -0.01827318      -0.00961173      -0.01618041       6.47386145       0.00210679      -0.01807484      -0.01160341       4.32391678      -0.04713516      -0.11225239       0.05151586    -744.67346857
Ti      -0.00765910      -0.00089464      10.90241909       6.42114293       0.00183223       0.00188013       0.00269641       6.42608401       0.00369911       0.00294002      -0.01243314       4.32753698       0.15096927       0.15346164      -0.14922458    -744.72581518
Ti      -0.00170044       3.95671821       2.29642868       6.43086802       0.00082056       0.01393300       0.00663434       6.46494480       0.04112288       0.00601015       0.04081678       4.34988252      -0.03275064       0.07948134      -0.21437979    -744.68202057
Ti       0.00642593       3.96492219       6.59427404       6.46499972      -0.00608924       0.00018691       0.00059800       6.44181263      -0.02918201       0.01905949      -0.03811106       4.33442285      -0.12743336       0.01534869       0.22613095    -744.72991229
Ti      -0.00036872       3.97339535      10.89575100       6.48420801      -0.00916598      -0.00134621      -0.01457216       6.48581197       0.01861818      -0.00425006       0.01061376       4.36508052      -0.00126166      -0.14131998       0.05665407    -744.64358298
Ti      -0.00366674       7.93555069       2.28330112       6.49421335      -0.00130011       0.03045733       0.00081645       6.46090180      -0.00119359       0.03596232       0.02464400       4.39306413      -0.03852948      -0.18787863       0.36438291    -744.71044838
Ti       0.00555618       7.93072033       6.59188557       6.45272978       0.00635369      -0.00129534       0.00052548       6.45162131      -0.01804423       0.00981645      -0.02982579       4.39413061      -0.18391734       0.15777003       0.03713903    -744.71213835
Ti      -0.00935313       7.93310356      10.89713001       6.48990989       0.02458892       0.03281931       0.01816231       6.47860992      -0.02839348       0.03827952      -0.00806429       4.38542394       0.06481776      -0.03268335       0.16205953    -744.68607124
Ti       3.96397901       0.00750239       2.30023670       6.43463400      -0.00141081       0.00607098       0.00819272       6.41049996      -0.01117942       0.00554782      -0.00310319       4.34308590       0.04580935      -0.15391075      -0.26815957    -744.66531836
Ti       3.97291279       0.00075683       6.59794188       6.42292860       0.00999128      -0.04343136       0.00556261       6.47080457      -0.01453930      -0.04098520      -0.00994096       4.34248624      -0.09536582      -0.01271489      -0.10119039    -744.68910996
Ti       3.96857047      -0.00440959      10.89393330       6.47321938      -0.00818394       0.01655978      -0.00719190       6.45616504       0.02572650       0.01657401       0.02038966       4.33301353      -0.09970075       0.06131551       0.27156959    -744.71424303
Ti       3.95790195       3.97086453       2.29387069       6.44325708      -0.01831733       0.00462060      -0.01216833       6.43161669       0.00819221       0.00201401       0.01165954       4.33026678       0.13616956      -0.12146880      -0.05522819    -744.69283516
Ti       3.95949912       3.97535872       6.60618210       6.47520898      -0.01128479       0.03006148       0.00175228       6.43502772      -0.01705172       0.02357139      -0.00999429       4.33014159       0.08868136      -0.22556586      -0.04613047    -744.71056589
Ti       3.96203566       3.96585464      10.90085030       6.43371209      -0.00360369       0.00100401       0.00578935       6.49000317       0.01432788       0.00695164       0.02500472       4.34736837      -0.10795033      -0.13654088      -0.05317178    -744.66875483
Ti       3.95869493       7.92234564       2.30150175       6.46419168       0.01464743       0.03428611       0.00512593       6.40041467       0.03625634       0.02921634       0.01950460       4.36475949      -0.02817480       0.20352559      -0.38137345    -744.67627024
Ti       3.95969296       7.92510080       6.59217215       6.46299114       0.00688808       0.06029323       0.00322234       6.46055169       0.03376399       0.04569302       0.01535564       4.34285855       0.10803699       0.20540940       0.14339780    -744.72609825
Ti       3.96297741       7.92466116      10.90013027       6.44518368      -0.01947476       0.03255388      -0.01615390       6.45467416       0.00134479       0.02944249       0.00591955       4.33414421      -0.15892165       0.13757456       0.22647493    -744.73579467
Ti       7.93060970       0.00762741       2.29310513       6.42589180       0.01550116       0.00225364      -0.00524084       6.46141141       0.00960373       0.00813120       0.01145941       4.31442994      -0.04606747      -0.08425863       0.02878983    -744.69042518
Ti       7.92395782      -0.00164858       6.60394001       6.41470611       0.00718598       0.00688266       0.01109066       6.42200467      -0.01961009      -0.01484870      -0.01614260       4.33739695       0.15508656       0.02717266      -0.32951644    -744.68693460
Ti       7.93187332       0.00142945      10.89884853       6.46664163       0.01559055      -0.00049064       0.01471557       6.44917257      -0.00067193       0.01080541       0.00624066       4.31561352      -0.04121708       0.00434854      -0.00473443    -744.69191647
Ti       7.93528938       3.97524261       2.29740620       6.40697142       0.01582438      -0.00363201       0.01435259       6.42939046      -0.02172948      -0.00489500      -0.00443751       4.37949391      -0.09730572      -0.18617304      -0.39666529    -744.70112428
Ti       7.92558193       3.96603608       6.59720659       6.45472988       0.00525966       0.02139340      -0.00851240       6.42605252       0.00211461       0.02224629      -0.01311472       4.32561240       0.00881880       0.04920831       0.07810392    -744.72314918
Ti       7.92381430       3.97337294      10.89377213       6.45552580      -0.01231368       0.02172946      -0.01710106       6.47408395       0.01630287       0.01408058       0.02636788       4.35133706       0.15569710      -0.12323108       0.35867823    -744.71782690
Ti       7.92229366       7.92379951       2.28624654       6.45612385      -0.02089922       0.03087333      -0.01435068       6.44667901       0.03505296       0.03110310       0.01817593       4.31865627       0.09478421       0.18811757       0.37543012    -744.73074011
Ti       7.92563725       7.93567228       6.60538864       6.47123463      -0.00170063       0.03911964       0.00156968       6.43383970      -0.01317685       0.03437607      -0.02954327       4.35722914       0.07428656       0.00905298      -0.36717272    -744.65135966
Ti       7.92353964       7.92720938      10.90154648       6.47013343       0.00951271       0.03117041       0.01273714       6.46013132       0.03664191       0.03084754       0.03892807       4.34126146       0.09051119       0.06782134      -0.10126320    -744.68426094
O       -0.00837584       1.98949182       2.04310799      -2.05114090      -0.00461819       0.00285064      -0.00200348      -5.21879586      -0.02573432       0.00074580      -0.03904458      -1.76159183       0.06566665       0.00496094      -0.00601647    -748.56829821
O        1.98765934       0.00114192       2.04353070      -5.19044478      -0.01475425      -0.00988219      -0.00008485      -2.06100147       0.00570919      -0.00174049       0.00131984      -1.76997564      -0.14825268       0.04024775       0.00529258    -748.56805753
O       -0.00469803       0.00112953       4.08026791      -1.83040705      -0.00463345      -0.01136634      -0.00496432      -1.84498176      -0.02539874      -0.00198011      -0.01606246      -3.70809685       0.03180706       0.01219043       0.19164187    -748.80830315
O        0.00538454       1.97342145       6.34299994      -2.04091145       0.01553274      -0.00136554      -0.00256287      -5.22633711       0.00405229       0.00106184       0.02078672      -1.76649395       0.00209432       0.23483012      -0.04808267    -748.56565281
O        1.97592723      -0.00809798       6.35256672      -5.20971647       0.00465998       0.01279213       0.01154763      -2.05632569      -0.00406706       0.03443689      -0.00105014      -1.75654454       0.07639251       0.06222943      -0.08948724    -748.56804865
O        0.00962976       0.00662235       8.38278580      -1.84542091       0.00189480       0.01013317       0.00069762      -1.85429697       0.00139947      -0.00153596      -0.00132882      -3.70350547      -0.08690281      -0.04733015       0.09061309    -748.81195930
O        0.00715375       1.99124599      10.64794445      -2.05393046       0.00547871       0.00232167      -0.00634410      -5.20510853       0.00772428       0.00371276       0.00150106      -1.76918578      -0.09685623      -0.17929301      -0.00877191    -748.56169098
O        1.98415518       0.00904072      10.64221096      -5.20501969       0.00434433      -0.00163572       0.00986659      -2.05505670      -0.00279627      -0.01483904      -0.00113634      -1.76445003      -0.02647988      -0.08406698       0.02123232    -748.55979143
O       -0.00033665       0.00253357      -0.22408539      -1.83512664       0.00145749       0.00435731       0.00191439      -1.83949572       0.00589126      -0.00940701       0.00100019      -3.70131194      -0.04369629      -0.03783238       0.07924081    -748.81804682
O       -0.00367945       5.94905567       2.04558182      -2.05770311       0.00523922       0.00075968       0.00217662      -5.19743482       0.00865573      -0.00091242      -0.01695985      -1.78205417       0.03762090       0.05903115      -0.03515431    -748.56427257
O        1.98256564       3.97256851       2.03379011      -5.19888048      -0.01007188      -0.00788398      -0.00184512      -2.05231419       0.00411965      -0.00816008       0.00277682      -1.77552367       0.00553737      -0.04076365       0.05012595    -748.56476078
O        0.00182023       3.97262907       4.08308172      -1.84511643       0.00292880      -0.02412238       0.00199959      -1.84821410      -0.02027633      -0.00926323      -0.01930595      -3.73349281       0.01552168      -0.06778241       0.22081820    -748.80514410
O        0.00900626       5.94307566       6.33301544      -2.04557148      -0.00498524       0.00106076       0.00271820      -5.22205142       0.00805034       0.00019569       0.02758782      -1.77993737      -0.00288022       0.01607266       0.08181856    -748.55655606
O        1.98830390       3.97142529       6.34147596      -5.24633850      -0.01283338      -0.02196851       0.00692223      -2.04844765      -0.00013247      -0.02233239       0.00223916      -1.76646366      -0.04916915      -0.02470611       0.01426070    -748.56102145
O        0.00974904       3.96157241       8.40068817      -1.85474460       0.00147322      -0.01053797       0.00209253      -1.86000672       0.01329658      -0.00691387       0.00604680      -3.69933123      -0.01768803       0.05591873      -0.28856475    -748.81709987
O       -0.00810843       5.95038700      10.65509605      -2.04228099       0.00595289       0.00067570       0.00763936      -5.24151452       0.00152351       0.00217371      -0.00062228      -1.77319042       0.05984846       0.09179495      -0.07649334    -748.56619352
O        1.97335553       3.96399760      10.65157700      -5.22102492       0.01234153      -0.00317858       0.00375436      -2.04936654       0.00169032       0.00309124       0.00144775      -1.76465578       0.13854048       0.08695355      -0.04424920    -748.56644470
O        0.00347314       3.97155809      -0.22587785      -1.85703141      -0.00327721      -0.00199977      -0.00391637      -1.85880073      -0.01957590      -0.00695926      -0.00597948      -3.71957652      -0.03958781      -0.01376094       0.12940302    -748.81416898
O       -0.00772627       9.92494011       2.04815412      -2.03671035       0.00120720       0.00658693       0.00305267      -5.25002049      -0.02442319       0.00428485      -0.03409105      -1.75665236       0.04066019      -0.10639158      -0.05072635    -748.56968491
O        1.98575807       7.92675400       2.03735638      -5.23388322       0.01292341      -0.03413572      -0.01416981      -2.04749970       0.00258230      -0.02551059       0.00026798      -1.77537910      -0.06286544       0.05141701       0.02652672    -748.56324688
O        0.00557444       7.92310381       4.09414673      -1.86156949      -0.00052281      -0.03516129      -0.00099609      -1.86662344       0.00014771      -0.01918429       0.01220504      -3.73643865      -0.00377867       0.05978106      -0.25907680    -748.81294865
O        0.00970252       9.91270351       6.33758068      -2.04595712      -0.01455940      -0.00544714       0.00429152      -5.21259244       0.00690638      -0.00269429       0.01219730      -1.77092663      -0.06818583      -0.10159458       0.02459492    -748.56356751
O        1.98548245       7.93670082       6.33728027      -5.25881479       0.00040625      -0.01047127       0.00359956      -2.03920210       0.00124636      -0.02850662       0.00558492      -1.76450233       0.06011789      -0.07395689       0.04306834    -748.55920792
O        0.00138450       7.92629766       8.39558029      -1.86063385       0.00024626      -0.01211912       0.00113349      -1.85677782       0.02493600       0.00058156       0.01350699      -3.72805907       0.01493312      -0.00632518      -0.16728242    -748.81385481
O        0.00133324       9.91047192      10.64253044      -2.04826836      -0.00697835       0.00737069      -0.00573320      -5.22959106       0.00223516       0.00661004       0.01223342      -1.76796949      -0.07413110       0.08341822       0.03022284    -748.56257614
O        1.97763705       7.94033241      10.64979935      -5.22380883       0.00776591      -0.01053133      -0.00611376      -2.04118685      -0.00123465      -0.02142657      -0.00355069      -1.76857097       0.12859842      -0.09970902      -0.03289277    -748.56344071
O        0.00454616       7.92915297      -0.21071492      -1.86474893      -0.00378293      -0.01394067      -0.00291844      -1.86541240       0.00827906      -0.01739792       0.00476462      -3.75871917      -0.05948211       0.05121099      -0.09711755    -748.80765018
O        3.96784234       1.98642755       2.02914143      -2.05622494      -0.00489016       0.00081543       0.00945503      -5.17762848       0.01314192       0.00120680      -0.00129546      -1.78505129      -0.03990958       0.03025952       0.07173049    -748.55852991
O        5.94415951      -0.00821212       2.04206514      -5.19413888       0.00353380       0.00908853      -0.01053244      -2.05339803       0.00030580      -0.00364632      -0.00306483      -1.76536064       0.10174697       0.07462231      -0.01126668    -748.56245177
O        3.96870828       0.00228613       4.08506536      -1.84318054      -0.00275425      -0.00089269      -0.00321333      -1.84110735      -0.01097234      -0.00719865       0.00191692      -3.71963992      -0.03972362       0.03559485       0.20794169    -748.80678117
O        3.96143317       1.98210335       6.33622074      -2.06076807       0.00954948       0.00061731       0.01409983      -5.18312602       0.00209779       0.00087763       0.00472835      -1.78164369      -0.01148743       0.06457681       0.06411660    -748.56662359
O        5.94477224       0.00234160       6.33299255      -5.21115971       0.00432424       0.00071044      -0.01769254      -2.04864169       0.00538388       0.01683910       0.00661443      -1.76810315       0.02043889      -0.02124361       0.04871429    -748.56121609
O        3.97213483      -0.00928673       8.38756752      -1.84396051       0.00057035       0.00093508      -0.00087583      -1.84610194       0.00017056      -0.00222768       0.01402712      -3.72802152       0.01197923       0.07080788       0.12057144    -748.80551117
O        3.95913601       1.98810542      10.64691925      -2.05234750      -0.00244292       0.00661106       0.00712274      -5.21459699      -0.01592863       0.00710185      -0.01634809      -1.76774295       0.05670765      -0.06607660      -0.01268344    -748.56479753
O        5.94874907      -0.00380197      10.65013218      -5.24142730      -0.00886616      -0.00673786       0.00045474      -2.05052468       0.00048231      -0.00450101      -0.00147879      -1.75713835       0.00113497       0.04897948      -0.04581913    -748.56941395
O        3.97269726       0.00245326      -0.21706085      -1.84658087      -0.00116575      -0.01006708      -0.00247858      -1.85805731      -0.01202476      -0.00565071      -0.01514655      -3.68737344      -0.03485232      -0.03281875      -0.22804716    -748.81963664
O        3.96192312       5.94771242       2.04556346      -2.04547355       0.01411337      -0.00143004      -0.00393111      -5.23339621      -0.01053365       0.00088347      -0.00979457      -1.75444530       0.03221052       0.06125682       0.00314888    -748.56722931
O        5.93984270       3.96361041       2.03084803      -5.17891827      -0.00929664       0.00492630       0.00373308      -2.05954794      -0.00957679       0.01076959      -0.01003488      -1.77933548       0.12682012       0.10234024       0.06344008    -748.56327797
O        3.96609759       3.96219921       4.08676004      -1.84976798      -0.00127731       0.00082229      -0.00120269      -1.84999997       0.01035871      -0.00668343       0.00398622      -3.70434621      -0.02941007       0.03976599       0.03470068    -748.82156809
O        3.96419048       5.95005131       6.35021591      -2.03931214       0.00454623       0.00256356      -0.00050857      -5.26205218       0.01240607       0.00331407      -0.00121847      -1.74790692       0.01614325       0.02926009      -0.01437891    -748.57006490
O        5.94569874       3.96478534       6.35010290      -5.22783769       0.01097552       0.00350432      -0.01139879      -2.03999256      -0.00279813      -0.01148033       0.00080440      -1.76317943       0.01012018       0.00333606      -0.00790040    -748.56729190
O        3.96179342       3.95650387       8.40039825      -1.84992587       0.00307523      -0.01235262       0.00200095      -1.84300286       0.01378189      -0.01034941       0.01975556      -3.69824658      -0.00676381       0.09868239      -0.08493923    -748.81351722
O        3.96438003       5.93969154      10.65588093      -2.05478978       0.00768489      -0.00223609      -0.00044542      -5.24596134       0.00000314      -0.00272375      -0.00232329      -1.75543465       0.00164548       0.22498604      -0.06730323    -748.57230446
O        5.94429111       3.96292019      10.64399719      -5.21611331      -0.01125246      -0.00207588      -0.00430965      -2.05510778      -0.00093365      -0.00950341      -0.00439375      -1.77381189       0.09876160       0.04957575      -0.00470564    -748.56395073
O        3.96819305       3.97058678      -0.22493768      -1.84645750       0.00182674      -0.01141644       0.00161630      -1.84587298      -0.00498610      -0.00343995      -0.00543225      -3.70597642      -0.01573226      -0.00208112       0.12314388    -748.81098732
O        3.96205926       9.92385387       2.04060864      -2.06632013      -0.00963349      -0.00097869      -0.00721359      -5.14525741      -0.01326697      -0.00233945      -0.01612527      -1.78278245      -0.01578145      -0.14172122       0.04849358    -748.56019888
O        5.94061756       7.94093752       2.04580593      -5.22149415      -0.00044603       0.00693692       0.00910245      -2.04213016       0.00628888      -0.01400246       0.00649474      -1.76933479       0.13829307      -0.08313495      -0.02610004    -748.56766503
O        3.96330285       7.93572283       4.08229923      -1.84505222       0.00150828      -0.01919387       0.00107274      -1.84032637      -0.02458887      -0.00581728      -0.01698015      -3.73664984       0.00180911      -0.06385000       0.32298939    -748.80322679
O        3.96322632       9.92370987       6.34774828      -2.05330374      -0.01119240      -0.00270040      -0.01558125      -5.20979037      -0.02600516      -0.00021833      -0.01741646      -1.76980200       0.02673295      -0.15800823      -0.05364861    -748.56850375
O        5.95713472       7.93955755       6.34746027      -5.22658788      -0.00523757      -0.03919132      -0.00555517      -2.04998538      -0.00258137      -0.02498147       0.00374479      -1.76789761      -0.19238025      -0.07513691      -0.01711956    -748.56800948
O        3.97398019       7.93889856       8.38944340      -1.85163765      -0.00566073      -0.02674325      -0.00609652      -1.85000664      -0.01555105      -0.02084033      -0.01003289      -3.71407009      -0.05625937      -0.08093337      -0.04873721    -748.81665244
O        3.96285796       9.91057396      10.64341450      -2.04403254      -0.01486401       0.00022974       0.00010409      -5.23161539       0.00226054       0.00084485       0.00116064      -1.76748531       0.04592814      -0.03209262       0.00367046    -748.55952370