135
Lattice="11.898253856589696 0.0 0.0 0.0 11.898253856589696 0.0 0.0 0.0 12.912076929577747" Properties=species:S:1:pos:R:3:born_charge:R:9:forces:R:3 polarization="-0.5800513756117027 -0.2845173032951891 -1.7292171587538014" polarizability="38.741612296896484 -0.002071252905209073 0.06296741090488994 -0.003012918709300514 38.73851202309251 0.022742950762460818 0.1779674856573284 -0.020213884713560344 33.156700559717514" original_dataset_index=0 total_energy=-100941.53172529273 stress="-0.00025354427986939277 1.7825308743217618e-06 0.00025690370435682997 1.7825308743217618e-06 -0.00022635200530935878 8.646966694696406e-05 0.00025690370435682997 8.646966694696406e-05 -0.0005821945399312352" pbc="T T T" 
Ba      1.9883175831   1.9826841727   0.0788988157   2.6697455207  -0.0074972963  -0.0039400788  -0.0202464240   2.6683019432  -0.0025858690   0.0054934901   0.0017079497   2.9230906547  -0.0481376301  -0.0181178480  -0.1092356475  
Ba      1.9767535623   1.9871498531   4.3749534950   2.6772742138   0.0184353640   0.0112171985  -0.0049694605   2.6672232108  -0.0120099861  -0.0034839863   0.0048789199   2.9013109000   0.0716615932  -0.0760519990   0.0076769082  
Ba      1.9746078022   1.9853460629   8.6710654443   2.6722380844   0.0062261875   0.0007269035   0.0056955487   2.6723495016   0.0136663367   0.0057859428   0.0054995215   2.8913932814   0.0411174438  -0.0541538094   0.0940323857  
Ba      1.9739342021   5.9411646477   0.0752046954   2.6692111964   0.0023103756  -0.0091574289  -0.0077637903   2.6728296539   0.0016752792  -0.0012806925   0.0062363002   2.9081571085   0.0127993810   0.0423899676  -0.0447009177  
Ba      1.9805352626   5.9437148479   4.3745427749   2.6804558608  -0.0143272457   0.0177916343  -0.0072580401   2.6632910993  -0.0065611005   0.0032194477  -0.0129618888   2.9070174813  -0.0414985772   0.0352548721  -0.0622436953  
Ba      1.9779557524   5.9567457788   8.6814914550   2.6682620757   0.0127863089  -0.0041866750  -0.0015771451   2.6733115020   0.0049855203   0.0006436435  -0.0049020466   2.8814480693  -0.0007872591  -0.0445476387   0.0622270921  
Ba      1.9792551525   9.9117069736   0.0790702557   2.6724549896  -0.0004266050  -0.0077961690   0.0037515183   2.6788536171   0.0074863059   0.0093821763   0.0079201794   2.9087288783   0.0794177634   0.0451352522  -0.0514576127  
Ba      1.9880047531   9.9076416733   4.3696960746   2.6801464114  -0.0050394724  -0.0044081680   0.0190393393   2.6692384215  -0.0130993225  -0.0121922193   0.0057741105   2.9032536221  -0.0385560128   0.0876271027   0.0196024410  
Ba      1.9788464225   9.9195048641   8.6810969850   2.6665397261  -0.0060373874   0.0136989458   0.0089318563   2.6748643570  -0.0061292924   0.0003539626  -0.0124391493   2.9027237573   0.0057104829   0.0224325368  -0.0229070888  
Ba      5.9426943778   1.9845954029   0.0770313255   2.6657712081   0.0141454459  -0.0194398526   0.0077555083   2.6675226587  -0.0038643285  -0.0018427495  -0.0032555012   2.9064840840   0.0303254666  -0.0067017834  -0.0159527559  
Ba      5.9451273280   1.9786517224   4.3794872953   2.6744365509   0.0025296976   0.0100837551   0.0006563342   2.6622146476  -0.0046002233  -0.0054652726  -0.0016872852   2.9113983010   0.0016189995   0.0205081329  -0.0353203375  
Ba      5.9429095078   1.9912267934   8.6881510455   2.6705937752   0.0091479240  -0.0017980890  -0.0010072317   2.6673240736   0.0102196467   0.0065564724   0.0079783484   2.8935014758   0.0092289147  -0.0456833850  -0.0209731931  
Ba      5.9486392483   5.9581468189   0.0614676444   2.6724481219   0.0062186588  -0.0193857625   0.0031050402   2.6719157791  -0.0070142263   0.0010829703   0.0017431232   2.8952793654  -0.0353127644  -0.1057488288   0.0492763576  
Ba      5.9481907682   5.9438350079   4.3695644146   2.6719289696   0.0140695008   0.0301309365   0.0029683975   2.6701217502  -0.0133474570  -0.0012979493  -0.0070369532   2.8982125188   0.0213865785   0.0293793675   0.0525388347  
Ba      5.9511462884   5.9507736384   8.6871716554   2.6642274762  -0.0066506426  -0.0005154570  -0.0109154979   2.6691830757   0.0106136091   0.0033529043  -0.0055596462   2.9058583167  -0.0153193999  -0.0113731534  -0.0617148720  
Ba      5.9528435786   9.9056484531   0.0747526554   2.6713245298  -0.0149294253  -0.0133503027  -0.0080924593   2.6757684686   0.0007222590  -0.0014932491   0.0075647292   2.9115718773  -0.0916036821   0.1379592025   0.0176852417  
Ba      5.9438151479   9.9099668334   4.3711260147   2.6615849429  -0.0199728754   0.0121424484  -0.0096299358   2.6853740045  -0.0065736701  -0.0045064363   0.0056547526   2.9018182453   0.0620427645   0.0502342943  -0.0171096879  
Ba      5.9413962577   9.9143206338   8.6774010747   2.6770630623  -0.0093204091   0.0078198188   0.0018665631   2.6726303339   0.0111184774   0.0134807333   0.0086573480   2.8988346767   0.0232015292  -0.0000384128   0.0021926688  
Ba      9.9064863632   1.9817864027   0.0661543248   2.6698384870   0.0003553655  -0.0128607989   0.0150496943   2.6760348169  -0.0077601019   0.0100708426   0.0011915734   2.9122679471   0.0422131712   0.0823396172  -0.0139274099  
Ba      9.9114259636   1.9853529729   4.3757539650   2.6694277385   0.0212661314   0.0122689188   0.0063766904   2.6640976474  -0.0078863956   0.0049728538   0.0051514135   2.9158654032  -0.0142613577  -0.0682398672   0.0098963336  
Ba      9.9165366439   1.9904743533   8.6779392147   2.6684470570   0.0079565901  -0.0103995546  -0.0025764658   2.6664671618   0.0086169581  -0.0103976426   0.0109019832   2.9010658064   0.0067481273  -0.0388381641   0.0037846055  
Ba      9.9244937445   5.9557026588   0.0794914857   2.6717577905   0.0221353360  -0.0188987757   0.0114201870   2.6545755965   0.0035949555  -0.0025171667   0.0023144014   2.9101286338  -0.0196069772  -0.0912553161  -0.0727262149  
Ba      9.9196181541   5.9432089779   4.3793034753   2.6656116307  -0.0104974733   0.0161865595   0.0025156121   2.6610869874  -0.0223493265  -0.0010887604  -0.0222436957   2.9004475682  -0.0121530651   0.1210979994  -0.0150362000  
Ba      9.9200455542   5.9522266385   8.6713440943   2.6649982625   0.0106285166   0.0024582427   0.0079074123   2.6773242499   0.0180492686   0.0085574153  -0.0024260494   2.9003010587  -0.0232367626  -0.0416923292   0.0241103432  
Ba      9.9071080232   9.9109847735   0.0623323845   2.6820656039  -0.0233147007  -0.0132248786  -0.0054057778   2.6704058762  -0.0038197532   0.0000497472  -0.0033856896   2.9015807877   0.0181600141   0.0451761996   0.0579394897  
Ba      9.9156459439   9.9171584740   4.3715707947   2.6612314425  -0.0121830463   0.0070682645  -0.0101222718   2.6823046071  -0.0156746541   0.0109070636   0.0025794622   2.8974187798  -0.0501946933  -0.0428476192   0.0337925317  
Ba      9.9068385932   9.9099333234   8.6756547846   2.6711059715  -0.0132616983   0.0130604839  -0.0086442364   2.6758850462   0.0075470609   0.0046035818   0.0043809981   2.9057329554   0.0672734255   0.0608618993  -0.0347514750  
Ti     -0.0035031603  -0.0051655004   2.2967893154   6.4424004855  -0.0104598241   0.0098578770  -0.0094317001   6.4831563657   0.0056852407   0.0128999543   0.0572699284   4.3095172178  -0.0203814236   0.0641516435  -0.1218093877  
Ti      0.0063525305   0.0042817403   6.5918580546   6.4628425181  -0.0201379684   0.0017978110  -0.0321469085   6.4835429702   0.0008851398  -0.0362793467  -0.0037268537   4.3096017599  -0.0474062984  -0.1091488802   0.0717031533  
Ti     -0.0076591006  -0.0008946401  10.9024192249   6.4285619320  -0.0068736824   0.0027275112   0.0112262852   6.4423672906   0.0026767674  -0.0021636618  -0.0136451563   4.3583568554   0.1473553349   0.1527516276  -0.1707247511  
Ti     -0.0017004401   3.9567181449   2.2964286553   6.4498663162   0.0125559138   0.0266234261  -0.0012509358   6.4644763128   0.0008946708   0.0035669212   0.0242949034   4.3316039626  -0.0333708169   0.0753925331  -0.1933825500  
Ti      0.0064259305   3.9649221954   6.5942741847   6.4783818345   0.0113373297   0.0457934371  -0.0032910184   6.4521301054  -0.0182159395   0.0134174124  -0.0390471221   4.3373990130  -0.1271329509   0.0120840590   0.2432047315  
Ti     -0.0003687200   3.9733953461  10.8957513444   6.4837424220   0.0070630988  -0.0008540827  -0.0156786799   6.4904118184   0.0375982628  -0.0198429621   0.0147409648   4.3911598768  -0.0055071653  -0.1444444687   0.0385495483  
Ti     -0.0036667403   7.9355506613   2.2833010244   6.4987718861   0.0015376926   0.0340095524  -0.0033029843   6.4751776119  -0.0246198219   0.0374409477   0.0318315405   4.3899982614  -0.0392376162  -0.1861630763   0.3834478459  
Ti      0.0055561804   7.9307202710   6.5918857746   6.4652071019  -0.0067563186   0.0237592212  -0.0070088409   6.4618873983  -0.0236504176   0.0045080092  -0.0361291970   4.3935777753  -0.1854336991   0.1576383083   0.0546595961  
Ti     -0.0093531307   7.9331037311  10.8971299145   6.5047339706   0.0148738414   0.0419146733   0.0159344488   6.4750891257  -0.0171100777   0.0309482790  -0.0131894567   4.4101876052   0.0623390390  -0.0305601279   0.1472801303  
Ti      3.9639790854   0.0075023905   2.3002368056   6.4361797767  -0.0017338839   0.0038825546   0.0200256188   6.4294434186  -0.0546368018   0.0016529675   0.0041231076   4.3083270290   0.0445921607  -0.1577317815  -0.2458596653  
Ti      3.9729128560   0.0007568301   6.5979420750   6.4364382645   0.0079681425  -0.0108192410   0.0186259544   6.4892207967  -0.0099900551  -0.0320933290  -0.0047804232   4.3490013795  -0.1001826857  -0.0094173386  -0.0815949325  
Ti      3.9685705657  -0.0044095903  10.8939331343   6.4794615653  -0.0249913731   0.0158873092  -0.0083889013   6.4755467172   0.0372642286   0.0225041779   0.0265940062   4.3827102397  -0.1009368855   0.0595034171   0.2528700859  
Ti      3.9579019149   3.9708644759   2.2938707451   6.4514077364  -0.0137867129   0.0167137559  -0.0114810566   6.4237164218  -0.0276915053  -0.0043750092  -0.0071410655   4.3421931547   0.1329629351  -0.1234815726  -0.0345325019  
Ti      3.9594990951   3.9753586462   6.6061820656   6.4844013903   0.0047822193   0.0893394089   0.0034373218   6.4375561357  -0.0074309780   0.0219783039  -0.0144003898   4.3156035768   0.0867083905  -0.2318446673  -0.0289152340  
Ti      3.9620356052   3.9658546355  10.9008503848   6.4360183460   0.0020404910  -0.0016719563  -0.0037073612   6.4793301705   0.0230358945   0.0115660818   0.0131871827   4.3597021675  -0.1113558229  -0.1380466123  -0.0746253133  
Ti      3.9586949250   7.9223458404   2.3015017157   6.4816520358   0.0112773020   0.0585638015   0.0066570373   6.4255939827   0.0007443154   0.0298771360   0.0355859973   4.3538399742  -0.0299486245   0.2067288644  -0.3631281623  
Ti      3.9596930551   7.9251009406   6.5921723046   6.4675692298  -0.0077690797   0.1186078772   0.0075508845   6.4800662921   0.0402162154   0.0382578521   0.0109316671   4.3466730448   0.1054546600   0.2067942042   0.1619462537  
Ti      3.9629772953   7.9246611605  10.9001305647   6.4508968454  -0.0073283269   0.0407925352  -0.0210865179   6.4619474850   0.0273983016   0.0362585635   0.0122545065   4.3756349432  -0.1611008007   0.1432228982   0.2086814228  
Ti      7.9306095909   0.0076274105   2.2931051351   6.4350513120   0.0071432900  -0.0063264519  -0.0180750105   6.4887828650  -0.0092541475   0.0047346157   0.0209729988   4.3082205751  -0.0449626722  -0.0882009295   0.0469586786  
Ti      7.9239580305  -0.0016485801   6.6039398454   6.4085963250   0.0120974542   0.0323947408   0.0144440338   6.4280305079  -0.0311341286  -0.0081581556  -0.0085096927   4.3492963917   0.1571801144   0.0294263592  -0.3036005301  
Ti      7.9318732410   0.0014294501  10.8988483346   6.4674045774   0.0077563187   0.0177446058   0.0077181704   6.4626743134   0.0205475073   0.0091298941   0.0157797121   4.3461091067  -0.0405820843   0.0012271977  -0.0262149339  
Ti      7.9352895313   3.9752425762   2.2974063154   6.4131245550   0.0350633907   0.0194902069   0.0187852702   6.4239092002  -0.0528668285   0.0086988450  -0.0182717169   4.3955233917  -0.0959203087  -0.1905554758  -0.3782315859  
Ti      7.9255817506   3.9660360855   6.5972064950   6.4691933682   0.0086303279   0.0632588247  -0.0067270147   6.4165072242   0.0049587442   0.0321425908  -0.0378064362   4.3254880778   0.0081512371   0.0452584722   0.0983521417  
Ti      7.9238144805   3.9733729761  10.8937717843   6.4673384068  -0.0042789221   0.0236312770  -0.0034535196   6.4719750648   0.0271492989   0.0297690971   0.0211642893   4.3627575144   0.1587869010  -0.1244176993   0.3419262785  
Ti      7.9222938603   7.9237993505   2.2862465446   6.4721270794  -0.0203297100   0.0314610716  -0.0120208566   6.4681731720   0.0271646952   0.0321406360   0.0291869501   4.3253779548   0.0945157402   0.1929791102   0.3909922346  
Ti      7.9256370606   7.9356724113   6.6053886655   6.4805159879  -0.0027875929   0.0698816122   0.0047591462   6.4656963009  -0.0156609598   0.0454457204  -0.0181642934   4.3665643620   0.0749378719   0.0101241981  -0.3438999312  
Ti      7.9235395304   7.9272092707  10.9015466448   6.4680082283   0.0067964605   0.0451256703   0.0224166408   6.4704054116   0.0483231148   0.0373711244   0.0402998650   4.3673253477   0.0888747218   0.0718201932  -0.1243792614  
O      -0.0083758406   1.9894918232   2.0431080171  -2.0596710645  -0.0043941907   0.0111588298  -0.0022406767  -5.2369850078  -0.0251575701  -0.0000080446  -0.0209037161  -1.7624665714   0.0657531889   0.0113739454  -0.0146749040  
O       1.9876593531   0.0011419201   2.0435307171  -5.2156707262  -0.0144219502  -0.0063823961  -0.0109670162  -2.0697632149   0.0047273781   0.0134775357   0.0028740828  -1.7768830941  -0.1454515895   0.0413276291  -0.0017761970  
O      -0.0046980303   0.0011295301   4.0802680538  -1.8294461935  -0.0045498477  -0.0246756262  -0.0087123688  -1.8441950662  -0.0255201756  -0.0041472519  -0.0135281566  -3.6812652450   0.0312208041   0.0119410717   0.1889740730  
O       0.0053845404   1.9734214421   6.3430001367  -2.0476427786   0.0362576439   0.0020709372  -0.0091398386  -5.2344409361   0.0055403094  -0.0044122387   0.0177257495  -1.7717609266   0.0036835193   0.2380587131  -0.0550330493  
O       1.9759272923  -0.0080979806   6.3525667173  -5.2158705970   0.0055392238   0.0173899131   0.0101950318  -2.0630316980  -0.0049152146   0.0391189289   0.0028280606  -1.7635433538   0.0780518015   0.0615554428  -0.0948426634  
O       0.0096297607   0.0066223505   8.3827861835  -1.8431716027   0.0075654363  -0.0054946985   0.0001626882  -1.8544371234   0.0286401255  -0.0007181715  -0.0008899425  -3.6843911861  -0.0862546692  -0.0468148838   0.0856728500  
O       0.0071537505   1.9912459434  10.6479443466  -2.0618259446  -0.0076744311   0.0104194743  -0.0076527731  -5.2249986944   0.0030532680   0.0026936151  -0.0095378444  -1.7782146931  -0.0927830854  -0.1768517783  -0.0150629999  
O       1.9841552328   0.0090407207  10.6422106362  -5.2139357696   0.0024715475   0.0048706489   0.0007480671  -2.0608771755  -0.0065584121  -0.0227850708  -0.0016589262  -1.7732792155  -0.0231276320  -0.0807219814   0.0158872534  
O      -0.0003366500   0.0025335702  -0.2240853967  -1.8381011266   0.0001927062  -0.0215520401   0.0005997620  -1.8427303622   0.0030860200  -0.0114021790  -0.0030158179  -3.7204315381  -0.0418142156  -0.0361527707   0.1169468833  
O      -0.0036794503   5.9490556383   2.0455818973  -2.0630914184   0.0111248042   0.0081042323  -0.0000011276  -5.2127906069   0.0095928120  -0.0036829357  -0.0125734581  -1.7884254326   0.0382906170   0.0579782123  -0.0428182437  
O       1.9825656827   3.9725686060   2.0337900864  -5.2005788324  -0.0067758432   0.0011240288  -0.0104187807  -2.0555559579   0.0099808108  -0.0299857869   0.0044540104  -1.7780393283   0.0089632548  -0.0394073257   0.0435738862  
O       0.0018202301   3.9726290660   4.0830818040  -1.8507621686   0.0004508005  -0.0282495863   0.0024449663  -1.8501032305  -0.0083917294  -0.0073295309  -0.0269263543  -3.7418009155   0.0162841102  -0.0683376599   0.2154790712  
O       0.0090062606   5.9430756379   6.3330155559  -2.0545985497  -0.0105738436   0.0005517263   0.0013614350  -5.2415515874   0.0098865705   0.0010344804   0.0099898863  -1.7825790167  -0.0018954040   0.0180710582   0.0766855276  
O       1.9883039131   3.9714252459   6.3414757365  -5.2439766674  -0.0138484420  -0.0276167053  -0.0004820759  -2.0589647477  -0.0015966807  -0.0224347111  -0.0013305767  -1.7732412168  -0.0471837088  -0.0241745551   0.0082533389  
O       0.0097490407   3.9615724552   8.4006877248  -1.8506342145  -0.0040787515  -0.0769248029   0.0019145638  -1.8601278589  -0.0005378279  -0.0067446671   0.0042253889  -3.6810866020  -0.0184511144   0.0568507416  -0.2899206868  
O      -0.0081084306   5.9503871384  10.6550961771  -2.0501775396   0.0187308809   0.0032577659   0.0080812944  -5.2444640455   0.0024248619   0.0025635350   0.0094558408  -1.7753962974   0.0615018588   0.0934353017  -0.0835188648  
O       1.9733555021   3.9639975754  10.6515768768  -5.2109292913   0.0087755646   0.0034354112  -0.0003285991  -2.0600926342  -0.0000670835   0.0031783036   0.0006819345  -1.7717736256   0.1428312198   0.0854999599  -0.0511519567  
O       0.0034731403   3.9715580059  -0.2258778569  -1.8539810591  -0.0047012708  -0.0100432585  -0.0028380858  -1.8554362249  -0.0050626216  -0.0057473488  -0.0048211317  -3.7090605131  -0.0379643778  -0.0141746695   0.1628668097  
O      -0.0077262706   9.9249399845   2.0481541775  -2.0455832921  -0.0086041870   0.0102963482   0.0010322336  -5.2490847427  -0.0266531131   0.0024822987  -0.0553282828  -1.7656096161   0.0405426868  -0.1114746625  -0.0585729126  
O       1.9857581030   7.9267540607   2.0373563067  -5.2423135138   0.0116457445  -0.0216476060  -0.0223231810  -2.0546049846   0.0013563138  -0.0307723151  -0.0020284236  -1.7789300882  -0.0620395873   0.0508636801   0.0192333535  
O       0.0055744404   7.9231036404   4.0941465047  -1.8647329008   0.0014141124  -0.0885347041  -0.0038852342  -1.8630267017   0.0050246591  -0.0202550107   0.0145293190  -3.7715748738  -0.0026669435   0.0595553872  -0.2626996843  
O       0.0097025207   9.9127035636   6.3375806963  -2.0518230126  -0.0227264497  -0.0023969181   0.0022997135  -5.2142859856   0.0068709290  -0.0035686783   0.0330815541  -1.7766761224  -0.0658578180  -0.1070483747   0.0177906999  
O       1.9854824829   7.9367010114   6.3372802662  -5.2512109169  -0.0028666477  -0.0070518921   0.0094681784  -2.0453159392   0.0036279685  -0.0142874119   0.0054976222  -1.7681333431   0.0628522084  -0.0733211197   0.0375812998  
O       0.0013845001   7.9262976906   8.3955803644  -1.8599043401   0.0014392219  -0.0271895439   0.0000605027  -1.8534402026   0.0372226684  -0.0029827567   0.0153642334  -3.6812135719   0.0145060637  -0.0057767767  -0.1739940189  
O       0.0013332401   9.9104716035  10.6425304362  -2.0538366630  -0.0092674553   0.0082406451  -0.0068189407  -5.2282225344   0.0032921779   0.0035014024   0.0051936884  -1.7665201782  -0.0726768742   0.0797899740   0.0218460958  
O       1.9776370124   7.9403325716  10.6497989167  -5.2333234394   0.0094531055  -0.0128449122   0.0010342483  -2.0467824000  -0.0043101062  -0.0262026935  -0.0023337701  -1.7776456031   0.1305553824  -0.0998343631  -0.0403622252  
O       0.0045461603   7.9291529708  -0.2107149158  -1.8586690691  -0.0001151195  -0.0261751581  -0.0006494721  -1.8597950077   0.0104211642  -0.0168936334   0.0073670008  -3.7697743852  -0.0582301378   0.0510570433  -0.0646355271  
O       3.9678423657   1.9864275430   2.0291414161  -2.0602380288   0.0211646753   0.0033398422   0.0100054234  -5.1947396496   0.0162189111   0.0012965179  -0.0101159785  -1.7900582847  -0.0386919363   0.0345274783   0.0642771870  
O       5.9441594779  -0.0082121206   2.0420651970  -5.1975583768   0.0072411768   0.0172000981  -0.0011641927  -2.0622207438   0.0004371060   0.0016345904  -0.0014541772  -1.7742079641   0.1008360146   0.0765533153  -0.0163799564  
O       3.9687083457   0.0022861302   4.0850651941  -1.8390387969  -0.0047563064  -0.0058983235  -0.0005141469  -1.8439858965   0.0103078983  -0.0066379906   0.0003089023  -3.7096688633  -0.0386210277   0.0351709778   0.2000597327  
O       3.9614331052   1.9821033227   6.3362207662  -2.0667678194   0.0402414710   0.0064539700   0.0152579229  -5.1995396684   0.0013253156   0.0008703146  -0.0057962846  -1.7882235098  -0.0111672237   0.0663089357   0.0566096687  
O       5.9447722280   0.0023416002   6.3329926859  -5.2247125988   0.0006388579   0.0063476037  -0.0134500595  -2.0583463022   0.0095641333   0.0178457800   0.0101188120  -1.7659002485   0.0234879040  -0.0217384393   0.0416775632  
O       3.9721348760  -0.0092867307   8.3875671638  -1.8480265169  -0.0023079932  -0.0183084810  -0.0007216215  -1.8499839318   0.0171900955  -0.0044853698   0.0111122976  -3.7318578881   0.0131815947   0.0714554591   0.1153229279  
O       3.9591359850   1.9881053631  10.6469192665  -2.0527355692   0.0091307270   0.0175973913   0.0079156943  -5.2238573856  -0.0176271384   0.0101611709  -0.0131069165  -1.7708062928   0.0565206846  -0.0639104582  -0.0204984574  
O       5.9487488983  -0.0038019703  10.6501317667  -5.2385494848  -0.0097889925   0.0032477852   0.0125069949  -2.0578229977  -0.0002248624   0.0107721332  -0.0002749938  -1.7619762359  -0.0017586594   0.0501613117  -0.0536509947  
O       3.9726973460   0.0024532602  -0.2170608562  -1.8455431964  -0.0076263279  -0.0065899748  -0.0052829487  -1.8620140581  -0.0017381602  -0.0064261434  -0.0180528111  -3.6833865140  -0.0356777790  -0.0303625391  -0.1926735987  
O       3.9619232252   5.9477125582   2.0455634173  -2.0499220829   0.0231014273   0.0070916464  -0.0050474042  -5.2397941226  -0.0080058005  -0.0011219088   0.0088562703  -1.7584523535   0.0327880174   0.0581047723  -0.0011703018  
O       5.9398426876   3.9636104754   2.0308480462  -5.1892073147  -0.0102654050   0.0158717111   0.0129926519  -2.0643539610  -0.0069736486   0.0225549855  -0.0089096367  -1.7808380347   0.1257635570   0.1031613103   0.0584401398  
O       3.9660975355   3.9621992353   4.0867601642  -1.8516482401  -0.0012995825  -0.0271525937  -0.0034983917  -1.8516510212   0.0165626848  -0.0050576204   0.0040472561  -3.6896450433  -0.0291204247   0.0397356845   0.0258933866  
O       3.9641904654   5.9500510884   6.3502158472  -2.0429144730   0.0033883218   0.0039991398  -0.0032142226  -5.2642668635   0.0192395809  -0.0010198836   0.0031892140  -1.7511900820   0.0162668234   0.0304318794  -0.0181413369  
O       5.9456986180   3.9647853654   6.3501027972  -5.2486482644   0.0139818439  -0.0010325342  -0.0050629357  -2.0492879328  -0.0046618308  -0.0078859229  -0.0044569837  -1.7702860758   0.0100248739   0.0048100267  -0.0138487395  
O       3.9617934952   3.9565037948   8.4003978248  -1.8500687309   0.0048747575  -0.0687452454   0.0011154944  -1.8416165719   0.0130870268  -0.0100451213   0.0201829408  -3.6766801980  -0.0072203720   0.0999283368  -0.0863598418  
O       3.9643800954   5.9396914176  10.6558813471  -2.0603234707   0.0010899452  -0.0019988079   0.0000267507  -5.2456622647   0.0002142423   0.0005874577  -0.0071431786  -1.7588483281   0.0024872243   0.2235020341  -0.0736491275  
O       5.9442910079   3.9629201353  10.6439969363  -5.2252180133  -0.0148436867   0.0046619896  -0.0001540909  -2.0685588967  -0.0039957444  -0.0109938909  -0.0065492447  -1.7788753102   0.0977552702   0.0498885474  -0.0136312178  
O       3.9681929457   3.9705868159  -0.2249376768  -1.8458834869   0.0003963816  -0.0325635922   0.0034768366  -1.8420877916   0.0015680468  -0.0014750079  -0.0021164368  -3.7110010941  -0.0160554777  -0.0029095641   0.1601776087  
O       3.9620592552   9.9238535544   2.0406086869  -2.0741127228  -0.0365674956   0.0052655486  -0.0098173815  -5.1567250597  -0.0095734121  -0.0062048568  -0.0292609325  -1.7906303976  -0.0144764374  -0.1429988834   0.0443072128  
O       5.9406173577   7.9409374817   2.0458059573  -5.2386984230  -0.0014644509   0.0211073089   0.0161216831  -2.0476772941   0.0080232190  -0.0059402356   0.0064155052  -1.7723094289   0.1397846442  -0.0831187955  -0.0331709437  
O       3.9633029253   7.9357227313   4.0822990039  -1.8349452322  -0.0010143634  -0.0539202773   0.0052384808  -1.8404351570  -0.0229800769  -0.0047761187  -0.0173928504  -3.7572916911   0.0025628737  -0.0630028207   0.3209308895  
O       3.9632262253   9.9237097244   6.3477481070  -2.0586021534  -0.0397659619  -0.0004454062  -0.0144341606  -5.2248814876  -0.0269172398  -0.0033259011  -0.0060311529  -1.7747614479   0.0271573043  -0.1627647452  -0.0597218694  
O       5.9571347689   7.9395576716   6.3474604570  -5.2531932395  -0.0079371673  -0.0364701900   0.0011877632  -2.0529166956  -0.0011967326  -0.0324830267   0.0055449411  -1.7691250160  -0.1923043886  -0.0750005411  -0.0237694249  
O       3.9739802761   7.9388986015   8.3894433640  -1.8493178359  -0.0050529310  -0.0764520889  -0.0055971881  -1.8510671620  -0.0061772223  -0.0196951488  -0.0109728013  -3.7028419580  -0.0563438999  -0.0811325539  -0.0560541348  
O       3.9628579653   9.9105740035  10.6434149063  -2.0524777728  -0.0253726907   0.0007248931  -0.0004205015  -5.2448528297   0.0042502306   0.0026081894  -0.0019295468  -1.7673145908   0.0468522629  -0.0345363191  -0.0025906548  
O       5.9566228688   7.9232337604  10.6542391970  -5.2362772486  -0.0048200455  -0.0233708531   0.0183082048  -2.0521389110  -0.0004545132  -0.0179756982  -0.0037239072  -1.7658394261  -0.1293338779   0.0376654058  -0.0358620731  
O       3.9566349248   7.9416598817  -0.2108513858  -1.8657027785   0.0068118615  -0.0108945573   0.0015565239  -1.8380241651  -0.0151670976  -0.0079382798  -0.0172891950  -3.6718246986   0.0601707901  -0.0867541759  -0.2182048652  
O       7.9299681009   1.9838611028   2.0484700675  -2.0514144031   0.0033597981   0.0009113366  -0.0042040291  -5.2345077490   0.0121688433  -0.0003531507   0.0095505299  -1.7668351754   0.0092678209   0.0774288576  -0.0442703881  
O       9.9145909738   0.0094583407   2.0455000773  -5.2161714857   0.0171244838  -0.0023368811   0.0157616860  -2.0614418869   0.0099438644  -0.0354699890   0.0066770835  -1.7705278909   0.0414343748  -0.0231129060  -0.0495067427  
O       7.9297078509   0.0028902702   4.0854108541  -1.8492374786  -0.0010081448  -0.0190073976   0.0057769669  -1.8492708137   0.0130493232   0.0026438856  -0.0004846001  -3.7054189981  -0.0014075332  -0.0328093936   0.0108365285  
O       7.9386438815   1.9768778723   6.3374887963  -2.0668455379   0.0411221694   0.0056287271  -0.0071102774  -5.2067279335   0.0058623015   0.0038741078  -0.0022214570  -1.7767079750  -0.0636194073   0.1764716729   0.0280665429  
O       9.9084475933   0.0066344305   6.3473841670  -5.1883431746  -0.0047616298   0.0155511785   0.0069825709  -2.0760605612  -0.0021398994   0.0143217879   0.0093497407  -1.7786068053   0.0356409440  -0.0759586491  -0.0195343667  
O       7.9231372604   0.0074808505   8.3829964735  -1.8285377377   0.0005233339  -0.0029485432   0.0044160438  -1.8356917934   0.0222991429   0.0062958561  -0.0063929784  -3.6993173234  -0.0175304764  -0.0346226245   0.2713700993  
O       7.9387928615   1.9906866733  10.6443702163  -2.0639865305   0.0010365666   0.0015023424   0.0088514955  -5.2258132767  -0.0001294034  -0.0033995084  -0.0181624457  -1.7734388753  -0.0720063805  -0.0093395104  -0.0063121716  
O       9.9081707033   0.0071313205  10.6391905259  -5.2344085741   0.0000179592   0.0061057958  -0.0080093922  -2.0599539974   0.0025266708  -0.0009728710  -0.0004825413  -1.7562374257   0.1186195618  -0.0435373396   0.0011532536  
O       7.9421100718  -0.0017834501  -0.2242735667  -1.8393361850  -0.0038851647  -0.0590041100   0.0034691279  -1.8551474023  -0.0083072574  -0.0088548782  -0.0078892676  -3.7207823483  -0.0449409892   0.0427426971   0.0897319861  
O       7.9389632015   5.9583511490   2.0347477465  -2.0472933821  -0.0037714538   0.0102566546   0.0172238435  -5.2627240072   0.0003950310   0.0025754877  -0.0090257759  -1.7599763624  -0.0896733903  -0.0229251174   0.0172703073  
O       9.9187889541   3.9727305060   2.0416172370  -5.2306439320   0.0075603238   0.0116055627  -0.0013845512  -2.0552826089   0.0067155096   0.0043414550   0.0020715564  -1.7668820202  -0.1155509878  -0.0156294689   0.0273905782  
O       7.9251878906   3.9668222456   4.0769927935  -1.8327145707   0.0029506533  -0.0229506888   0.0035187967  -1.8346115290   0.0002797076   0.0074344710   0.0058202223  -3.7182630597   0.0222012297   0.0481960109   0.2596252167  
O       7.9256319006   5.9432271079   6.3418175566  -2.0669443329  -0.0062103146  -0.0024597174  -0.0012752622  -5.1981058244   0.0041237593  -0.0013889109   0.0283396284  -1.7790854597   0.0166508406  -0.0640134101   0.0051235708  
O       9.9213211443   3.9732116160   6.3512253472  -5.2181371882  -0.0012528461  -0.0071627275   0.0007806317  -2.0543889583   0.0000093914  -0.0165131775   0.0028974823  -1.7741429973   0.0198602976  -0.0579698533  -0.0299617356  
O       7.9290644408   3.9741234061   8.3934215443  -1.8572212284  -0.0001179254  -0.0552805455   0.0043402593  -1.8362385722   0.0035150297   0.0016282405  -0.0083563076  -3.7054075161  -0.0027697769  -0.0312580703  -0.0294390220  
O       7.9229162904   5.9575971889  10.6528683869  -2.0473932083   0.0235525558   0.0008331853  -0.0030475550  -5.2665122819  -0.0222224879  -0.0054702799  -0.0140569552  -1.7610578691   0.0258474486  -0.0684725458  -0.0586325184  
O       9.9147997938   3.9672652056  10.6515241468  -5.2452884690   0.0006228558   0.0053047827  -0.0148168270  -2.0644433911  -0.0013628271  -0.0031492555   0.0015606141  -1.7775017273  -0.1251682523   0.0507542622  -0.0668203707  